var element_data = {
    "wiki": "https://en.wikipedia.org/wiki/Fermium",
    "video": "https://www.youtube.com/watch?v=SQhI52sqanA&list=PL7A1F4CF36C085DE1&index=100",
    "image": "Fermium/fermium.jpg",
    "species": "ACTINOIDS",
    "symbol": "Fm",
    "latin_name": "Fermium",
    "english_name": "Fermium",
    "year_discovered": "1952",
    "discovered_by": "Glenn Theodore Seaborg",
    "Electron_shell": [
        {
            "K": 2
        },
        {
            "L": 8
        },
        {
            "M": 18
        },
        {
            "N": 32
        },
        {
            "O": 30
        },
        {
            "P": 8
        },
        {
            "Q": 2
        },
        {
            "R": 0
        }
    ],
    "epn_no": [
        {
            "electrons": 100,
        },
        {
            "protons": 100,
        },
        {
            "neutrons": 157
        }
    ],
    "atomic_number": 100,
    "atomic_weight": "257.0951 (g/mol)",
    "density": "19.050 (g/cm³)",
    "melting_point": "1525 °C = 2777.00 °F = 1798.15 K",
    "boiling_point": "----",
    "valence_electrons": "3",
    "period": 7,
    "group": "----",
    "block": "f-block",
    "emission_spectrum": "Fermium/Fm.gif",
    "phase": "----",
    "phase_icon": "----",
    "fusion_heat": "---- (kJ &middot K)",
    "specific_heat": "---- J/(kg &middot; K)",
    "thermal_expansion": "---- &middot; 10<sup>-6</sup>°C<sup>-1</sup>)",
    "vaporization_heat": "---- kJ &middot; mol",
    "electron_configuration": "[Rn] 7s<sup>2</sup> 5f<sup>12</sup>",
    "oxidation_state": "+2, +3",
    "ion_charge": "Fm<sup>3+</sup>",
    "ionization_potential": "---- eV",
    "atomic_radius": "290 (pm)",
    "covalent_radius": "---- (pm)",
    "van_der_waals_radius": "---- (pm)",
    "electrical_conductivity": "----",
    "electrical_type": "----", 
    "magnetic_type": "----",
    "volume_susceptibility": "----",
    "mass_susceptibility": "----",
    "molar_susceptibility": "---- m<sup>3</sup>/mol",
    "resistivity": "---- m\u03A9",
    "superconducting_point": "----",
    "lattice_structure": "Fermium/Cubic-face-centered.svg.png",
    "crystal_structure": "Cubic-face-centered.svg.png",
    "grid": "---- ",
    "attitude": "----",
    "debye_temperature": "----",
    "space_group_name": "----",
    "space_group_number": "----",
    "CAS_number": "CAS7440-70-4",
    "CID_number": "----",
    "RTEC_number": "----",
    "brinell_hardness": "---- MPa",
    "mohs_hardness": "----",
    "vickers_hardness": "----",
    "bulk_modulus": "---- GPa",
    "Young_modulus": "---- GPa",
    "liquid_density": "---- (g/cm<sup>3</sup>)",
    "molar_volume": "---- (cm<sup>3</sup>/mol)",
    "poisson_ratio": "----",
    "shear_modulus": "---- GPa",
    "sound_speed": "---- m/s",
    "refractive_index": "----",
    "thermal_conductivity": "---- W/mK",
    "electronegative": "Pauling Scale 1.3",
    "electron_affinity": "---- KJ/mol",
    "radioactivity": "yes",
    "half_life": "101 days",
    "life_time": "145 days",
    "barn": "5800 b",
    "hazard_block": [
        {
            "red": "-"
        },
        {
            "yellow": "-"
        },
        {
            "blue": "-"
        },
        {
            "white": "-"
        }
    ],
    "fire_hazard": "----",
    "health_hazard":"----",
    "reactivity": "----",
    "specific": "----",
    "universe_contains": "----%",
    "sun_contains": "---- %",
    "oceans_contains": "---- %",
    "human_body_contains": "---- %",
    "earth_crust_contains": "---- %",
    "meteorites_contains": "---- %",
    "start_isotope_number": 242,
    "stop_isotope_number": 250,
    "half_life_number": ["800 &micro;s", "210 ms", "3.3 ms", "4.2 s", "1.1 s", "29 s", "36 s", "26 m", "30 m"],
    "iso_weight": [242.07343, 243.7408, 245.07253, 246.07530, 247.07685, 248.07719, 249.07903, 250.07952, 250.07952]
}