{
    "fermium_Fm": {
        "allotropes": NaN,
        "alternative_name": NaN,
        "alternative_names": NaN,
        "appearance": NaN,
        "at_t_(k)": NaN,
        "atomic_number": 100,
        "atomic_radius": NaN,
        "atomic_weight": "(257)",
        "band_gap": NaN,
        "boiling_point": NaN,
        "brinell_hardness": NaN,
        "bulk_modulus": NaN,
        "cas_number": "7440-72-4",
        "color": NaN,
        "covalent_radius": NaN,
        "critical_point": NaN,
        "crystal_structure": "face-centered cubic (fcc), (predicted)",
        "curie_point": NaN,
        "density_at_stp": NaN,
        "density_near_rt": "9.7(1) g/cm3 (predicted)",
        "density_when_liquid_at_mp": NaN,
        "discovery": "Lawrence Berkeley National Laboratory (1952)",
        "discovery_and_first_isolation": NaN,
        "electrical_resistivity": NaN,
        "electron_configuration": "[Rn] 5f12 7s2",
        "electronegativity": "Pauling scale: 1.3",
        "element_category": "actinide",
        "first_isolation": NaN,
        "group_block": "group n/a, f-block",
        "heat_of_fusion": NaN,
        "heat_of_vaporisation": NaN,
        "heat_of_vaporization": NaN,
        "ionisation_energies": NaN,
        "ionization_energies": "1st: 627 kJ/mol  (estimated)",
        "iso": "iso, NA, half-life, DM, DE (MeV), DP, 252Fm, syn, 25.39 h, SF, \u2013, \u2013, ?, 7.153, 248Cf, 253Fm, syn, 3 d, ?, 0.333, 253Es, ?, 7.197, 249Cf, 255Fm, syn, 20.07 h, SF, \u2013, \u2013, ?, 7.241, 251Cf, 257Fm, syn, 100.5 d, ?, 6.864, 253Cf, SF, \u2013, \u2013",
        "magnetic_ordering": NaN,
        "melting_point": "1800 K (1527 \u00b0C, 2781 \u00b0F) (predicted)",
        "mohs_hardness": NaN,
        "molar_heat_capacity": NaN,
        "molar_volume": NaN,
        "name": "Fermium",
        "named_by": NaN,
        "naming": "after Enrico Fermi",
        "oxidation_states": "2, 3",
        "p_(pa)": NaN,
        "per_shell": "2, 8, 18, 32, 30, 8, 2",
        "period": 7,
        "phase": "solid (predicted)",
        "poisson_ratio": NaN,
        "prediction": NaN,
        "pronunciation": "/?f??rmi?m/, FER-mee-?m",
        "proposed_formal_name": NaN,
        "recognised_as_an_element_by": NaN,
        "recognized_as_a_distinct_element_by": NaN,
        "recognized_as_a_unique_metal_by": NaN,
        "recognized_as_an_element_by": NaN,
        "shear_modulus": NaN,
        "speed_of_sound": NaN,
        "speed_of_sound_thin_rod": NaN,
        "sublimation_point": NaN,
        "symbol": "Fm",
        "tensile_strength": NaN,
        "thermal_conductivity": NaN,
        "thermal_diffusivity": NaN,
        "thermal_expansion": NaN,
        "triple_point": NaN,
        "van_der_waals_radius": NaN,
        "vickers_hardness": NaN,
        "when_liquid_at_bp": NaN,
        "when_liquid_at_mp": NaN,
        "youngs_modulus": NaN
    }
}