{
    "scandium_Sc": {
        "allotropes": NaN,
        "alternative_name": NaN,
        "alternative_names": NaN,
        "appearance": "silvery white",
        "at_t_(k)": 1645.0,
        "atomic_number": 21,
        "atomic_radius": "empirical: 162 pm",
        "atomic_weight": "44.955908(5)",
        "band_gap": NaN,
        "boiling_point": "3109 K (2836 \u00b0C, 5136 \u00b0F)",
        "brinell_hardness": "736\u20131200 MPa",
        "bulk_modulus": "56.6 GPa",
        "cas_number": "7440-20-2",
        "color": NaN,
        "covalent_radius": "170\u00b17 pm",
        "critical_point": NaN,
        "crystal_structure": "hexagonal close-packed (hcp)",
        "curie_point": NaN,
        "density_at_stp": NaN,
        "density_near_rt": "2.985 g/cm3",
        "density_when_liquid_at_mp": NaN,
        "discovery": NaN,
        "discovery_and_first_isolation": "Lars Fredrik Nilson (1879)",
        "electrical_resistivity": "?, poly: 562 n?\u00b7m (at r.t., calculated)",
        "electron_configuration": "[Ar] 3d1 4s2",
        "electronegativity": "Pauling scale: 1.36",
        "element_category": "transition metal",
        "first_isolation": NaN,
        "group_block": "group 3, d-block",
        "heat_of_fusion": "14.1 kJ/mol",
        "heat_of_vaporisation": NaN,
        "heat_of_vaporization": "332.7 kJ/mol",
        "ionisation_energies": NaN,
        "ionization_energies": "1st: 633.1 kJ/mol, 2nd: 1235.0 kJ/mol, 3rd: 2388.6 kJ/mol, (more)",
        "iso": "iso\nNA\nhalf-life\nDM\nDE (MeV)\nDP\n\n\n44m2Sc\nsyn\n58.61 h\nIT\n0.2709\n44Sc\n\n\n?\n1.0, 1.1, 1.1\n44Sc\n\n\n?\n\u2013\n44Ca\n\n\n45Sc\n100%\n45Sc is stable with 24 neutrons\n\n\n46Sc\nsyn\n83.79 d\n??\n0.3569\n46Ti\n\n\n?\n0.889, 1.120\n\u2013\n\n\n47Sc\nsyn\n3.3492 d\n??\n0.44, 0.60\n47Ti\n\n\n?\n0.159\n\u2013\n\n\n48Sc\nsyn\n43.67 h\n??\n0.661\n48Ti\n\n\n?\n0.9, 1.3, 1.0\n\u2013",
        "magnetic_ordering": "paramagnetic",
        "melting_point": "1814 K (1541 \u00b0C, 2806 \u00b0F)",
        "mohs_hardness": NaN,
        "molar_heat_capacity": "25.52 J/(mol\u00b7K)",
        "molar_volume": NaN,
        "name": "Scandium",
        "named_by": NaN,
        "naming": "after Scandinavia",
        "oxidation_states": "3, 2, 1 (an amphoteric oxide)",
        "p_(pa)": "vapor pressure, P (Pa), 1, 10, 100, 1 k, 10 k, 100 k, at T (K), 1645, 1804, (2006), (2266), (2613), (3101)",
        "per_shell": "2, 8, 9, 2",
        "period": 4,
        "phase": "solid",
        "poisson_ratio": "0.279",
        "prediction": "Dmitri Mendeleev (1871)",
        "pronunciation": "/?sk\u00e6ndi?m/, SKAN-dee-?m",
        "proposed_formal_name": NaN,
        "recognised_as_an_element_by": NaN,
        "recognized_as_a_distinct_element_by": NaN,
        "recognized_as_a_unique_metal_by": NaN,
        "recognized_as_an_element_by": NaN,
        "shear_modulus": "29.1 GPa",
        "speed_of_sound": NaN,
        "speed_of_sound_thin_rod": NaN,
        "sublimation_point": NaN,
        "symbol": "Sc",
        "tensile_strength": NaN,
        "thermal_conductivity": "15.8 W/(m\u00b7K)",
        "thermal_diffusivity": NaN,
        "thermal_expansion": "?, poly: 10.2 \u00b5m/(m\u00b7K) (at r.t.)",
        "triple_point": NaN,
        "van_der_waals_radius": "211 pm",
        "vickers_hardness": NaN,
        "when_liquid_at_bp": NaN,
        "when_liquid_at_mp": "2.80 g/cm3",
        "youngs_modulus": "74.4 GPa"
    }
}