var element_data = {
    "wiki": "https://en.wikipedia.org/wiki/Scandium",
    "video": "https://www.youtube.com/watch?v=KkKv5ilmRjY&list=PL7A1F4CF36C085DE1&index=21",
    "image": "Scandium/scandium.jpg",
    "species": "TRANSITION METALS",
    "symbol": "Sc",
    "latin_name": "Scandium",
    "english_name": "Scandium",
    "year_discovered": "1879",
    "discovered_by": "Lars Fredrik Nilson",
    "Electron_shell": [
        {
            "K": 2
        },
        {
            "L": 8
        },
        {
            "M": 9
        },
        {
            "N": 2
        },
        {
            "O": 0
        },
        {
            "P": 0
        },
        {
            "Q": 0
        },
        {
            "R": 0
        }
    ],
    "epn_no": [
        {
            "electrons": 21,
        },
        {
            "protons": 21,
        },
        {
            "neutrons": 24
        }
    ],
    "atomic_number": 21,
    "atomic_weight": "44.9559 (g/mol)",
    "density": "2.99 (g/cm³)",
    "melting_point": "1541 °C = 2805.80 °F = 1814.15 K",
    "boiling_point": "2836 °C = 5136.80 °F = 3109.15 K",
    "valence_electrons": 3,
    "period": 4,
    "group": "III B",
    "block": "d-block",
    "emission_spectrum": "Scandium/Sc.gif",
    "phase": "Solid",
    "phase_icon": "----",
    "fusion_heat": "16 (kJ &middot K)",
    "specific_heat": "567 J/(kg &middot; K)",
    "thermal_expansion": "10.2 &middot; 10<sup>-6</sup>°C<sup>-1</sup>)",
    "vaporization_heat": "318 kJ &middot; mol",
    "electron_configuration": "[Ar] 4s<sup>2</sup> 3d<sup>1</sup>",
    "oxidation_state": "+1, +2, +3",
    "ion_charge": "Sc<sup>3+</sup>",
    "ionization_potential": "6.57 eV",
    "atomic_radius": "162 (pm)",
    "covalent_radius": "144 (pm)",
    "van_der_waals_radius": "211 (pm)",
    "electrical_conductivity": "1.8 &middot; 10<sup>6</sup>",
    "electrical_type": "Conductor", 
    "magnetic_type": "----",
    "volume_susceptibility": "0.0002627",
    "mass_susceptibility": "0.000000088",
    "molar_susceptibility": "3.956 &middot; 10<sup>-9</sup> m<sup>3</sup>/mol",
    "resistivity": "5.5 &middot; 10<sup>-7</sup> m\u03A9",
    "superconducting_point": "-273.10 °C = -459.58 °F = 0.05 K",
    "lattice_structure": "Scandium/Hexagonal_close_packed.svg.png",
    "crystal_structure": "Hexagonal close-packed",
    "grid": "a=3.309 \u212B; c=5.268 \u212B",
    "attitude": "1.592",
    "debye_temperature": "----",
    "space_group_name": "----",
    "space_group_number": "194",
    "CAS_number": "CAS7440-20-2",
    "CID_number": "CID23952",
    "RTEC_number": "----",
    "brinell_hardness": "736-1200 MPa",
    "mohs_hardness": "----",
    "vickers_hardness": "----",
    "bulk_modulus": "56.6 GPa",
    "Young_modulus": "74.4 GPa",
    "liquid_density": "2.8 (g/cm<sup>3</sup>)",
    "molar_volume": "15 (cm<sup>3</sup>/mol)",
    "poisson_ratio": "0.28 &micro;",
    "shear_modulus": "29 GPa",
    "sound_speed": "---- m/s",
    "refractive_index": "----",
    "thermal_conductivity": "16 W/mK",
    "electronegative": "Pauling Scale 1.36",
    "electron_affinity": "18.1 KJ/mol",
    "radioactivity": "no",
    "half_life": "\u221E",
    "life_time": "\u221E",
    "barn": "27.2 b",
    "hazard_block": [
        {
            "red": "-"
        },
        {
            "yellow": "-"
        },
        {
            "blue": "-"
        },
        {
            "white": "-"
        }
    ],
    "fire_hazard": "----",
    "health_hazard":"----",
    "reactivity": "----",
    "specific": "----",
    "universe_contains": "3 &middot; 10<sup>-6</sup> %",
    "sun_contains": "4 &middot; 10<sup>-6</sup> %",
    "oceans_contains": "1.5 &middot; 10<sup>-10</sup> %",
    "human_body_contains": "---- %",
    "earth_crust_contains": "0.0026 %",
    "meteorites_contains": "0.00064 %",
    "start_isotope_number": 36,
    "stop_isotope_number": 42,
    "half_life_number": ["-", "-", "300 ns", "300 ns", "182.3 ms", "596.3 ms", "681.3 ms"],
    "iso_weight": [36.01492, 37.00305, 37.99470, 38.98479, 39.97796, 40.96925, 41.96551]
}