{
    "cobalt_Co": {
        "allotropes": NaN,
        "alternative_name": NaN,
        "alternative_names": NaN,
        "appearance": "hard lustrous bluish gray metal",
        "at_t_(k)": 1790.0,
        "atomic_number": 27,
        "atomic_radius": "empirical: 125 pm",
        "atomic_weight": "58.933194(4)",
        "band_gap": NaN,
        "boiling_point": "3200 K (2927 \u00b0C, 5301 \u00b0F)",
        "brinell_hardness": "470\u20133000 MPa",
        "bulk_modulus": "180 GPa",
        "cas_number": "7440-48-4",
        "color": "metallic gray",
        "covalent_radius": "Low spin: 126\u00b13 pm, High spin: 150\u00b17 pm",
        "critical_point": NaN,
        "crystal_structure": "hexagonal close-packed (hcp)",
        "curie_point": NaN,
        "density_at_stp": NaN,
        "density_near_rt": "8.90 g/cm3",
        "density_when_liquid_at_mp": NaN,
        "discovery": "Georg Brandt (1732)",
        "discovery_and_first_isolation": NaN,
        "electrical_resistivity": "62.4 n?\u00b7m (at 20 \u00b0C)",
        "electron_configuration": "[Ar] 3d7 4s2",
        "electronegativity": "Pauling scale: 1.88",
        "element_category": "transition metal",
        "first_isolation": NaN,
        "group_block": "group 9, d-block",
        "heat_of_fusion": "16.06 kJ/mol",
        "heat_of_vaporisation": NaN,
        "heat_of_vaporization": "377 kJ/mol",
        "ionisation_energies": NaN,
        "ionization_energies": "1st: 760.4 kJ/mol, 2nd: 1648 kJ/mol, 3rd: 3232 kJ/mol, (more)",
        "iso": "iso\nNA\nhalf-life\nDM\nDE (MeV)\nDP\n\n\n56Co\nsyn\n77.27 d\n?\n4.566\n56Fe\n\n\n57Co\nsyn\n271.79 d\n?\n0.836\n57Fe\n\n\n58Co\nsyn\n70.86 d\n?\n2.307\n58Fe\n\n\n59Co\n100%\n59Co is stable with 32 neutrons\n\n\n60Co\nsyn\n5.2714 y\n??, ?\n2.824\n60Ni",
        "magnetic_ordering": "ferromagnetic",
        "melting_point": "1768 K (1495 \u00b0C, 2723 \u00b0F)",
        "mohs_hardness": "5",
        "molar_heat_capacity": "24.81 J/(mol\u00b7K)",
        "molar_volume": NaN,
        "name": "Cobalt",
        "named_by": NaN,
        "naming": NaN,
        "oxidation_states": "?3, ?1, +1, +2, +3, +4, +5 (an amphoteric oxide)",
        "p_(pa)": "vapor pressure, P (Pa), 1, 10, 100, 1 k, 10 k, 100 k, at T (K), 1790, 1960, 2165, 2423, 2755, 3198",
        "per_shell": "2, 8, 15, 2",
        "period": 4,
        "phase": "solid",
        "poisson_ratio": "0.31",
        "prediction": NaN,
        "pronunciation": "/?ko?b?lt/, KOH-bahlt",
        "proposed_formal_name": NaN,
        "recognised_as_an_element_by": NaN,
        "recognized_as_a_distinct_element_by": NaN,
        "recognized_as_a_unique_metal_by": NaN,
        "recognized_as_an_element_by": NaN,
        "shear_modulus": "75 GPa",
        "speed_of_sound": NaN,
        "speed_of_sound_thin_rod": "4720 m/s (at 20 \u00b0C)",
        "sublimation_point": NaN,
        "symbol": "Co",
        "tensile_strength": NaN,
        "thermal_conductivity": "100 W/(m\u00b7K)",
        "thermal_diffusivity": NaN,
        "thermal_expansion": "13.0 \u00b5m/(m\u00b7K) (at 25 \u00b0C)",
        "triple_point": NaN,
        "van_der_waals_radius": NaN,
        "vickers_hardness": "1043 MPa",
        "when_liquid_at_bp": NaN,
        "when_liquid_at_mp": "8.86 g/cm3",
        "youngs_modulus": "209 GPa"
    }
}