var element_data = {
    "wiki": "https://en.wikipedia.org/wiki/Cobalt",
    "video": "https://www.youtube.com/watch?v=MWtL3pvGC68&list=PL7A1F4CF36C085DE1&index=27",
    "image": "Cobalt/cobalt.jpg",
    "species": "TRANSITION METALS",
    "symbol": "Co",
    "latin_name": "Cobaltum",
    "english_name": "Cobalt",
    "year_discovered": "1774",
    "discovered_by": "Georg Brandt",
    "Electron_shell": [
        {
            "K": 2
        },
        {
            "L": 8
        },
        {
            "M": 15
        },
        {
            "N": 2
        },
        {
            "O": 0
        },
        {
            "P": 0
        },
        {
            "Q": 0
        },
        {
            "R": 0
        }
    ],
    "epn_no": [
        {
            "electrons": 27,
        },
        {
            "protons": 27,
        },
        {
            "neutrons": 32
        }
    ],
    "atomic_number": 27,
    "atomic_weight": "58.9331 (g/mol)",
    "density": "8.9 (g/cm³)",
    "melting_point": "1493 °C = 2719.40 °F = 1766.15 K",
    "boiling_point": "2870 °C = 5198.00 °F = 3143.15 K",
    "valence_electrons": "4",
    "period": 4,
    "group": "VII B",
    "block": "p-block",
    "emission_spectrum": "Cobalt/Co.gif",
    "phase": "Solid",
    "phase_icon": "----",
    "fusion_heat": "16.2 (kJ &middot K)",
    "specific_heat": "421 J/(kg &middot; K)",
    "thermal_expansion": "13 &middot; 10<sup>-6</sup>°C<sup>-1</sup>)",
    "vaporization_heat": "375 kJ &middot; mol",
    "electron_configuration": "[Ar] 3d<sup>7</sup>4s<sup>2</sup>",
    "oxidation_state": "-3, -1, +1, +2, +3, +4, +5",
    "ion_charge": "Co<sup>2+</sup>, Co<sup>3+</sup>",
    "ionization_potential": "7.81 ev",
    "atomic_radius": "125 (pm)",
    "covalent_radius": "126 (pm)",
    "van_der_waals_radius": "---- (pm)",
    "electrical_conductivity": "1.7 &middot; 10<sup>7</sup>",
    "electrical_type": "Conductor", 
    "magnetic_type": "Ferromagnet",
    "volume_susceptibility": "----",
    "mass_susceptibility": "----",
    "molar_susceptibility": "---- m<sup>3</sup>/mol",
    "resistivity": "6 &middot; 10<sup>-8</sup> m\u03A9",
    "superconducting_point": "----",
    "lattice_structure": "Cobalt/Hexagonal_close_packed.svg.png",
    "crystal_structure": "Hexagonal close-packed",
    "grid": "a=2.505 \u212B;; c=4.089 \u212B;",
    "attitude": "1.632",
    "debye_temperature": "111.85 °C = 233.33 °F = 385 K",
    "space_group_name": "----",
    "space_group_number": "194",
    "CAS_number": "CAS7440-48-4",
    "CID_number": "CID104730",
    "RTEC_number": "RTECSGF8750000",
    "brinell_hardness": "470-3000 MPa",
    "mohs_hardness": "5",
    "vickers_hardness": "1043",
    "bulk_modulus": "180 GPa",
    "Young_modulus": "209 GPa",
    "liquid_density": "7.75 (g/cm<sup>3</sup>)",
    "molar_volume": "6.6 (cm<sup>3</sup>/mol)",
    "poisson_ratio": "0.31 &micro;",
    "shear_modulus": "75 GPa",
    "sound_speed": "4720 m/s",
    "refractive_index": "----",
    "thermal_conductivity": "100 W/mK",
    "electronegative": "Pauling Scale 1.88",
    "electron_affinity": "63.7 KJ/mol",
    "radioactivity": "no",
    "half_life": "\u221E",
    "life_time": "\u221E",
    "barn": "37.2 b",
    "hazard_block": [
        {
            "red": "-"
        },
        {
            "yellow": "-"
        },
        {
            "blue": "-"
        },
        {
            "white": "-"
        }
    ],
    "fire_hazard": "----",
    "health_hazard":"----",
    "reactivity": "----",
    "specific": "----",
    "universe_contains": "0.0003 %",
    "sun_contains": "0.0004 %",
    "oceans_contains": "8 &middot; 10<sup>-9</sup> %",
    "human_body_contains": "2 &middot; 10<sup>-6</sup> %",
    "earth_crust_contains": "0.003 %",
    "meteorites_contains": "0.059 %",
    "start_isotope_number": 47,
    "stop_isotope_number": 75,
    "half_life_number": ["-", "-", "35 m", "44 ms", "60 ms", "242 ms", "193.28 ms", "15.53 hours", "77.233 days", "271.74 days", "70.86", "stable", "5.2713 days", "1.650 hours", "1.50 m", "26.9 s", "300 ms", "1.2 s", "180 ms", "425 ms", "199 ms", "227 ms", "119 ms", "97 ms", "62 ms", "41 ms", "50 ms", "40 ms"],
    "iso_weight": [47.01149, 48.00176, 48.98972, 49.98154, 50.97072, 51.96359, 52.954219, 53.9484596, 54.9419990, 55.9398393, 56.9362914, 57.9362914, 58.9331950, 59.9338171, 60.9324758, 61.934051, 62.933612, 63.935810, 64.936478, 64.93976, 66.94089, 67.94487, 98.94632, 69.9510, 70.9529, 71.95781, 72.96024, 73.96538, 74.96833]
}