{
    "tantalum_Ta": {
        "allotropes": NaN,
        "alternative_name": NaN,
        "alternative_names": NaN,
        "appearance": "gray blue",
        "at_t_(k)": 3297.0,
        "atomic_number": 73,
        "atomic_radius": "empirical: 146 pm",
        "atomic_weight": "180.94788(2)",
        "band_gap": NaN,
        "boiling_point": "5731 K (5458 \u00b0C, 9856 \u00b0F)",
        "brinell_hardness": "440\u20133430 MPa",
        "bulk_modulus": "200 GPa",
        "cas_number": "7440-25-7",
        "color": NaN,
        "covalent_radius": "170\u00b18 pm",
        "critical_point": NaN,
        "crystal_structure": "tetragonal, ?-Ta",
        "curie_point": NaN,
        "density_at_stp": NaN,
        "density_near_rt": "16.69 g/cm3",
        "density_when_liquid_at_mp": NaN,
        "discovery": "Anders Gustaf Ekeberg (1802)",
        "discovery_and_first_isolation": NaN,
        "electrical_resistivity": "131 n?\u00b7m (at 20 \u00b0C)",
        "electron_configuration": "[Xe] 4f14 5d3 6s2",
        "electronegativity": "Pauling scale: 1.5",
        "element_category": "transition metal",
        "first_isolation": NaN,
        "group_block": "group 5, d-block",
        "heat_of_fusion": "36.57 kJ/mol",
        "heat_of_vaporisation": NaN,
        "heat_of_vaporization": "753 kJ/mol",
        "ionisation_energies": NaN,
        "ionization_energies": "1st: 761 kJ/mol, 2nd: 1500 kJ/mol",
        "iso": "iso, NA, half-life, DM, DE (MeV), DP, 177Ta, syn, 56.56 h, ?, 1.166, 177Hf, 178Ta, syn, 2.36 h, ?, 1.910, 178Hf, 179Ta, syn, 1.82 y, ?, 0.110, 179Hf, 180Ta, syn, 8.125 h, ?, 0.854, 180Hf, ??, 0.708, 180W, 180mTa, 0.012%, 180mTa is stable with 107 neutrons, 181Ta, 99.988%, 181Ta is stable with 108 neutrons, 182Ta, syn, 114.43 d, ??, 1.814, 182W, 183Ta, syn, 5.1 d, ??, 1.070, 183W",
        "magnetic_ordering": "paramagnetic",
        "melting_point": "3290 K (3017 \u00b0C, 5463 \u00b0F)",
        "mohs_hardness": "6.5",
        "molar_heat_capacity": "25.36 J/(mol\u00b7K)",
        "molar_volume": NaN,
        "name": "Tantalum",
        "named_by": NaN,
        "naming": NaN,
        "oxidation_states": "5, 4, 3, 2, 1, ?1, ?3 (a mildly acidic oxide)",
        "p_(pa)": "vapor pressure, P (Pa), 1, 10, 100, 1 k, 10 k, 100 k, at T (K), 3297, 3597, 3957, 4395, 4939, 5634",
        "per_shell": "2, 8, 18, 32, 11, 2",
        "period": 6,
        "phase": "solid",
        "poisson_ratio": "0.34",
        "prediction": NaN,
        "pronunciation": "/?t\u00e6nt?l?m/, TAN-t?l-?m, previously: /t\u00e6n?t\u00e6li?m/, tan-TAL-ee-?m",
        "proposed_formal_name": NaN,
        "recognised_as_an_element_by": NaN,
        "recognized_as_a_distinct_element_by": "Heinrich Rose (1844)",
        "recognized_as_a_unique_metal_by": NaN,
        "recognized_as_an_element_by": NaN,
        "shear_modulus": "69 GPa",
        "speed_of_sound": NaN,
        "speed_of_sound_thin_rod": "3400 m/s (at 20 \u00b0C)",
        "sublimation_point": NaN,
        "symbol": "Ta",
        "tensile_strength": NaN,
        "thermal_conductivity": "57.5 W/(m\u00b7K)",
        "thermal_diffusivity": NaN,
        "thermal_expansion": "6.3 \u00b5m/(m\u00b7K) (at 25 \u00b0C)",
        "triple_point": NaN,
        "van_der_waals_radius": NaN,
        "vickers_hardness": "870\u20131200 MPa",
        "when_liquid_at_bp": NaN,
        "when_liquid_at_mp": "15 g/cm3",
        "youngs_modulus": "186 GPa"
    }
}