var element_data = {
    "wiki": "https://en.wikipedia.org/wiki/Lead",
    "video": "https://www.youtube.com/watch?v=2ERfPN5JLX8&list=PL7A1F4CF36C085DE1&index=82",
    "image": "Lead/lead.jpg",
    "species": "POST-TRANSITION METAL",
    "symbol": "Pb",
    "latin_name": "Plumbum",
    "english_name": "Lead",
    "year_discovered": "Deep antiquity",
    "discovered_by": "----",
    "Electron_shell": [
        {
            "K": 2
        },
        {
            "L": 8
        },
        {
            "M": 18
        },
        {
            "N": 32
        },
        {
            "O": 18
        },
        {
            "P": 4
        },
        {
            "Q": 0
        },
        {
            "R": 0
        }
    ],
    "epn_no": [
        {
            "electrons": 82,
        },
        {
            "protons": 82,
        },
        {
            "neutrons": 125
        }
    ],
    "atomic_number": 82,
    "atomic_weight": "207.2 (g/mol)",
    "density": "11.34 (g/cm³)",
    "melting_point": "327.4 °C = 621.32 °F = 600.55 K",
    "boiling_point": "1749 °C = 3180.20 °F = 2022.15 K",
    "valence_electrons": "4",
    "period": 6,
    "group": "IV B",
    "block": "p-block",
    "emission_spectrum": "Lead/Pb.gif",
    "phase": "Solid",
    "phase_icon": "----",
    "fusion_heat": "4.77 (kJ &middot K)",
    "specific_heat": "127 J/(kg &middot; K)",
    "thermal_expansion": "28.8 &middot; 10<sup>-6</sup>°C<sup>-1</sup>)",
    "vaporization_heat": "178 kJ &middot; mol",
    "electron_configuration": "[Xe] 6s<sup>2</sup> 4f<sup>14</sup> 5d<sup>10</sup> 6p<sup>2</sup>",
    "oxidation_state": "-4, -2, -1, +1, +2, +3, +4",
    "ion_charge": "Pb<sup>2+</sup>, Pb<sup>4+</sup>",
    "ionization_potential": "7.38 eV",
    "atomic_radius": "175 (pm)",
    "covalent_radius": "147 (pm)",
    "van_der_waals_radius": "202 (pm)",
    "electrical_conductivity": "4.8 &middot; 10<sup>6</sup>",
    "electrical_type": "Conductor", 
    "magnetic_type": "Diamagnetic",
    "volume_susceptibility": "-0.000017",
    "mass_susceptibility": "-0.0000000015",
    "molar_susceptibility": "-3.11 &middot; 10<sup>-10</sup> m<sup>3</sup>/mol",
    "resistivity": "2.2 &middot; 10<sup>-7</sup> m\u03A9",
    "superconducting_point": "-265.95 °C = -446.71 °F = 7.2 K",
    "lattice_structure": "Lead/Cubic-face-centered.svg.png",
    "crystal_structure": "Face-centered cubic",
    "grid": "a=4.950 \u212B",
    "attitude": "----",
    "debye_temperature": "-185.15 °C = -301.27 °F = 88 K",
    "space_group_name": "Fm_3m",
    "space_group_number": "225",
    "CAS_number": "CAS7439-92-1",
    "CID_number": "CID5352425",
    "RTEC_number": "RTECSOF7525000",
    "brinell_hardness": "38-50 MPa",
    "mohs_hardness": "1.5",
    "vickers_hardness": "----",
    "bulk_modulus": "46 GPa",
    "Young_modulus": "16 GPa",
    "liquid_density": "10.66 (g/cm<sup>3</sup>)",
    "molar_volume": "18.3 (cm<sup>3</sup>/mol)",
    "poisson_ratio": "0.44 &micro;",
    "shear_modulus": "5.6 GPa",
    "sound_speed": "2160 m/s",
    "refractive_index": "35",
    "thermal_conductivity": "16 W/mK",
    "electronegative": "Pauling Scale 2.33",
    "electron_affinity": "35.1 KJ/mol",
    "radioactivity": "no",
    "half_life": "\u221E",
    "life_time": "\u221E",
    "barn": "0.171 b",
    "hazard_block": [
        {
            "red": "0"
        },
        {
            "yellow": "0"
        },
        {
            "blue": "2"
        },
        {
            "white": "-"
        }
    ],
    "fire_hazard": "Will not burn",
    "health_hazard":"Hazardous",
    "reactivity": "Stable",
    "specific": "----",
    "universe_contains": "---- %",
    "sun_contains": "9.9 &middot; 10<sup>-7</sup> %",
    "oceans_contains": "3 &middot; 10<sup>-9</sup> %",
    "human_body_contains": "0.00017 %",
    "earth_crust_contains": "0.001 %",
    "meteorites_contains": "0.00014 %",
    "start_isotope_number": 178,
    "stop_isotope_number": 183,
    "half_life_number": ["230 &micro;s", "3 ms", "4.5 ms", "45 ms", "60 ms", "535 ms"],
    "iso_weight": [178.00383, 179.00215, 179.99791, 180.99662, 181.99267, 182.99187]
}