{
    "lead_Pb": {
        "allotropes": NaN,
        "alternative_name": NaN,
        "alternative_names": NaN,
        "appearance": "metallic gray",
        "at_t_(k)": 978.0,
        "atomic_number": 82,
        "atomic_radius": "empirical: 175 pm",
        "atomic_weight": "207.2(1)",
        "band_gap": NaN,
        "boiling_point": "2022 K (1749 \u00b0C, 3180 \u00b0F)",
        "brinell_hardness": "38\u201350 MPa",
        "bulk_modulus": "46 GPa",
        "cas_number": "7439-92-1",
        "color": NaN,
        "covalent_radius": "146\u00b15 pm",
        "critical_point": NaN,
        "crystal_structure": "face-centered cubic (fcc)",
        "curie_point": NaN,
        "density_at_stp": NaN,
        "density_near_rt": "11.34 g/cm3",
        "density_when_liquid_at_mp": NaN,
        "discovery": "Middle Easterns (7000 BCE)",
        "discovery_and_first_isolation": NaN,
        "electrical_resistivity": "208 n?\u00b7m (at 20 \u00b0C)",
        "electron_configuration": "[Xe] 4f14 5d10 6s2 6p2",
        "electronegativity": "Pauling scale: 1.87",
        "element_category": "post-transition metal",
        "first_isolation": NaN,
        "group_block": "group 14 (carbon group), p-block",
        "heat_of_fusion": "4.77 kJ/mol",
        "heat_of_vaporisation": NaN,
        "heat_of_vaporization": "179.5 kJ/mol",
        "ionisation_energies": NaN,
        "ionization_energies": "1st: 715.6 kJ/mol, 2nd: 1450.5 kJ/mol, 3rd: 3081.5 kJ/mol",
        "iso": "iso, NA, half-life, DM, DE (MeV), DP, 202Pb, syn, 53000 y, ?, 0.0497, 202Tl, 204Pb, 1.4%, 204Pb is stable with 122 neutrons, 205Pb, trace, 1.53\u00d7107 y, ?, 0.051, 205Tl, 206Pb, 24.1%, 206Pb is stable with 124 neutrons, 207Pb, 22.1%, 207Pb is stable with 125 neutrons, 208Pb, 52.4%, 208Pb is stable with 126 neutrons, 210Pb, trace, 22.3 y, ??, 0.064, 210Bi",
        "magnetic_ordering": "diamagnetic",
        "melting_point": "600.61 K (327.46 \u00b0C, 621.43 \u00b0F)",
        "mohs_hardness": "1.5",
        "molar_heat_capacity": "26.650 J/(mol\u00b7K)",
        "molar_volume": NaN,
        "name": "Lead",
        "named_by": NaN,
        "naming": NaN,
        "oxidation_states": "4, 3, 2, 1, ?1, ?2, ?4 (an amphoteric oxide)",
        "p_(pa)": "vapor pressure, P (Pa), 1, 10, 100, 1 k, 10 k, 100 k, at T (K), 978, 1088, 1229, 1412, 1660, 2027",
        "per_shell": "2, 8, 18, 32, 18, 4",
        "period": 6,
        "phase": "solid",
        "poisson_ratio": "0.44",
        "prediction": NaN,
        "pronunciation": "/?l?d/, LED",
        "proposed_formal_name": NaN,
        "recognised_as_an_element_by": NaN,
        "recognized_as_a_distinct_element_by": NaN,
        "recognized_as_a_unique_metal_by": NaN,
        "recognized_as_an_element_by": NaN,
        "shear_modulus": "5.6 GPa",
        "speed_of_sound": NaN,
        "speed_of_sound_thin_rod": "1190 m/s (at r.t.) (annealed)",
        "sublimation_point": NaN,
        "symbol": "Pb",
        "tensile_strength": NaN,
        "thermal_conductivity": "35.3 W/(m\u00b7K)",
        "thermal_diffusivity": NaN,
        "thermal_expansion": "28.9 \u00b5m/(m\u00b7K) (at 25 \u00b0C)",
        "triple_point": NaN,
        "van_der_waals_radius": "202 pm",
        "vickers_hardness": NaN,
        "when_liquid_at_bp": NaN,
        "when_liquid_at_mp": "10.66 g/cm3",
        "youngs_modulus": "16 GPa"
    }
}