{
    "selenium_Se": {
        "allotropes": NaN,
        "alternative_name": NaN,
        "alternative_names": NaN,
        "appearance": "black, red, and gray (not pictured) allotropes",
        "at_t_(k)": 500.0,
        "atomic_number": 34,
        "atomic_radius": "empirical: 120 pm",
        "atomic_weight": "78.971(8)",
        "band_gap": NaN,
        "boiling_point": "958 K (685 \u00b0C, 1265 \u00b0F)",
        "brinell_hardness": "736 MPa",
        "bulk_modulus": "8.3 GPa",
        "cas_number": "7782-49-2",
        "color": NaN,
        "covalent_radius": "120\u00b14 pm",
        "critical_point": "1766 K, 27.2 MPa",
        "crystal_structure": "hexagonal",
        "curie_point": NaN,
        "density_at_stp": NaN,
        "density_near_rt": "gray: 4.81 g/cm3, alpha: 4.39 g/cm3, vitreous: 4.28 g/cm3",
        "density_when_liquid_at_mp": NaN,
        "discovery": NaN,
        "discovery_and_first_isolation": "J\u00f6ns Jakob Berzelius and Johann Gottlieb Gahn (1817)",
        "electrical_resistivity": NaN,
        "electron_configuration": "[Ar] 3d10 4s2 4p4",
        "electronegativity": "Pauling scale: 2.55",
        "element_category": "polyatomic nonmetal, sometimes considered a metalloid",
        "first_isolation": NaN,
        "group_block": "group 16 (chalcogens), p-block",
        "heat_of_fusion": "gray: 6.69 kJ/mol",
        "heat_of_vaporisation": NaN,
        "heat_of_vaporization": "95.48 kJ/mol",
        "ionisation_energies": NaN,
        "ionization_energies": "1st: 941.0 kJ/mol, 2nd: 2045 kJ/mol, 3rd: 2973.7 kJ/mol",
        "iso": "iso\nNA\nhalf-life\nDM\nDE (MeV)\nDP\n\n\n72Se\nsyn\n8.4 d\n?\n\u2013\n72As\n\n\n?\n0.046\n\u2013\n\n\n74Se\n0.86%\n74Se is stable with 40 neutrons\n\n\n75Se\nsyn\n119.779 d\n?\n\u2013\n75As\n\n\n?\n0.264, 0.136,\n0.279\n\u2013\n\n\n76Se\n9.23%\n76Se is stable with 42 neutrons\n\n\n77Se\n7.60%\n77Se is stable with 43 neutrons\n\n\n78Se\n23.69%\n78Se is stable with 44 neutrons\n\n\n79Se\ntrace\n3.27\u00d7105 y\n??\n0.151\n79Br\n\n\n80Se\n49.80%\n80Se is stable with 46 neutrons\n\n\n82Se\n8.82%\n1.08\u00d71020 y\n????\n2.995\n82Kr",
        "magnetic_ordering": "diamagnetic",
        "melting_point": "494 K (221 \u00b0C, 430 \u00b0F)",
        "mohs_hardness": "2",
        "molar_heat_capacity": "25.363 J/(mol\u00b7K)",
        "molar_volume": NaN,
        "name": "Selenium",
        "named_by": NaN,
        "naming": "after Selene, Greek goddess of the moon",
        "oxidation_states": "6, 5, 4, 3, 2, 1, ?1, ?2 (a strongly acidic oxide)",
        "p_(pa)": "vapor pressure, P (Pa), 1, 10, 100, 1 k, 10 k, 100 k, at T (K), 500, 552, 617, 704, 813, 958",
        "per_shell": "2, 8, 18, 6",
        "period": 4,
        "phase": "solid",
        "poisson_ratio": "0.33",
        "prediction": NaN,
        "pronunciation": "/s??li?ni?m/, si-LEE-nee-?m",
        "proposed_formal_name": NaN,
        "recognised_as_an_element_by": NaN,
        "recognized_as_a_distinct_element_by": NaN,
        "recognized_as_a_unique_metal_by": NaN,
        "recognized_as_an_element_by": NaN,
        "shear_modulus": "3.7 GPa",
        "speed_of_sound": NaN,
        "speed_of_sound_thin_rod": "3350 m/s (at 20 \u00b0C)",
        "sublimation_point": NaN,
        "symbol": "Se",
        "tensile_strength": NaN,
        "thermal_conductivity": "amorphous: 0.519 W/(m\u00b7K)",
        "thermal_diffusivity": NaN,
        "thermal_expansion": "amorphous: 37 \u00b5m/(m\u00b7K) (at 25 \u00b0C)",
        "triple_point": NaN,
        "van_der_waals_radius": "190 pm",
        "vickers_hardness": NaN,
        "when_liquid_at_bp": NaN,
        "when_liquid_at_mp": "3.99 g/cm3",
        "youngs_modulus": "10 GPa"
    }
}