var element_data = {
    "wiki": "https://en.wikipedia.org/wiki/Erbium",
    "video": "https://www.youtube.com/watch?v=E-DY_RT4fJ4&list=PL7A1F4CF36C085DE1&index=68",
    "image": "Erbium/erbium.jpg",
    "species": "ALKALINE EARTH METALS",
    "symbol": "Ba",
    "latin_name": "Erbium",
    "english_name": "Erbium",
    "year_discovered": "1842",
    "discovered_by": "Carl Gustaf Mosander",
    "Electron_shell": [
        {
            "K": 2
        },
        {
            "L": 8
        },
        {
            "M": 18
        },
        {
            "N": 30
        },
        {
            "O": 8
        },
        {
            "P": 2
        },
        {
            "Q": 0
        },
        {
            "R": 0
        }
    ],
    "epn_no": [
        {
            "electrons": 68,
        },
        {
            "protons": 68,
        },
        {
            "neutrons": 99
        }
    ],
    "atomic_number": 68,
    "atomic_weight": "167.259 (g/mol)",
    "density": "9.05 (g/cm³)",
    "melting_point": "1529 °C = 2784.20 °F = 1802.15 K",
    "boiling_point": "2867 °C = 5192.60 °F = 3140.15 K",
    "valence_electrons": "3",
    "period": 6,
    "group": "----",
    "block": "f-block",
    "emission_spectrum": "Erbium/Er.gif",
    "phase": "Solid",
    "phase_icon": "----",
    "fusion_heat": "19.9 (kJ &middot K)",
    "specific_heat": "168 J/(kg &middot; K)",
    "thermal_expansion": "12.2 &middot; 10<sup>-6</sup>(°C<sup>-1</sup>)",
    "vaporization_heat": "285 kJ &middot; mol",
    "electron_configuration": "[Xe] 6s<sup>2</sup>4f<sup>12</sup>",
    "oxidation_state": "+2, +3",
    "ion_charge": "Er<sup>3+</sup>",
    "ionization_potential": "---- eV",
    "atomic_radius": "178 (pm)",
    "covalent_radius": "---- (pm)",
    "van_der_waals_radius": "---- (pm)",
    "electrical_conductivity": "1.2 &middot; 10<sup>6</sup>",
    "electrical_type": "Conductor", 
    "magnetic_type": "Paramagnetic",
    "volume_susceptibility": "0.0341788",
    "mass_susceptibility": "0.00000377",
    "molar_susceptibility": "6.30566 &middot; 10<sup>-9</sup> m<sup>3</sup>/mol",
    "resistivity": "8.6 &middot; 10<sup>-7</sup> m\u03A9",
    "superconducting_point": "----",
    "lattice_structure": "Erbium/Hexagonal_close_packed.svg.png",
    "crystal_structure": "Hexagonal close-packed",
    "grid": "a=3.560 \u212B c=5.587 \u212B",
    "attitude": "1.570",
    "debye_temperature": "----",
    "space_group_name": "----",
    "space_group_number": "194",
    "CAS_number": "CAS7440-52-0",
    "CID_number": "CID23980",
    "RTEC_number": "----",
    "brinell_hardness": "600-1070 MPa",
    "mohs_hardness": "---- GPa",
    "vickers_hardness": "430-700 MPa",
    "bulk_modulus": "44.4 GPa",
    "Young_modulus": "69.9 GPa",
    "liquid_density": "8.86 (g/cm<sup>3</sup>)",
    "molar_volume": "18.4 (cm<sup>3</sup>/mol)",
    "poisson_ratio": "0.24 &micro;",
    "shear_modulus": "28 GPa",
    "sound_speed": "2830 m/s",
    "refractive_index": "----",
    "thermal_conductivity": "15 W/mK",
    "electronegative": "Pauling Scale 1.24",
    "electron_affinity": "50 KJ/mol",
    "radioactivity": "no",
    "half_life": "\u221E",
    "life_time": "\u221E",
    "barn": "165 b",
    "hazard_block": [
        {
            "red": "-"
        },
        {
            "yellow": "-"
        },
        {
            "blue": "-"
        },
        {
            "white": "-"
        }
    ],
    "fire_hazard": "---- °C",
    "health_hazard":"----",
    "reactivity": "----",
    "specific": "----",
    "universe_contains": "---- %",
    "sun_contains": "7 &middot; 10<sup>-7</sup> %",
    "oceans_contains": "9 &middot; 10<sup>-11</sup> %",
    "human_body_contains": "---- %",
    "earth_crust_contains": "0.0003 %",
    "meteorites_contains": "0.000018 %",
    "start_isotope_number": 143,
    "stop_isotope_number": 147,
    "half_life_number": ["200 ms", "400 ms", "900 ms", "1.7 s", "2.5 s"],
    "iso_weight": [142.96634, 143.96038, 144.95739, 145.95200, 146.94949]
}