{
    "erbium_Er": {
        "allotropes": NaN,
        "alternative_name": NaN,
        "alternative_names": NaN,
        "appearance": "silvery white",
        "at_t_(k)": 1504.0,
        "atomic_number": 68,
        "atomic_radius": "empirical: 176 pm",
        "atomic_weight": "167.259(3)",
        "band_gap": NaN,
        "boiling_point": "3141 K (2868 \u00b0C, 5194 \u00b0F)",
        "brinell_hardness": "600\u20131070 MPa",
        "bulk_modulus": "44.4 GPa",
        "cas_number": "7440-52-0",
        "color": NaN,
        "covalent_radius": "189\u00b16 pm",
        "critical_point": NaN,
        "crystal_structure": "hexagonal close-packed (hcp)",
        "curie_point": NaN,
        "density_at_stp": NaN,
        "density_near_rt": "9.066 g/cm3",
        "density_when_liquid_at_mp": NaN,
        "discovery": "Carl Gustaf Mosander (1842)",
        "discovery_and_first_isolation": NaN,
        "electrical_resistivity": "poly: 0.860 \u00b5?\u00b7m (r.t.)",
        "electron_configuration": "[Xe] 4f12 6s2",
        "electronegativity": "Pauling scale: 1.24",
        "element_category": "lanthanide",
        "first_isolation": NaN,
        "group_block": "group n/a, f-block",
        "heat_of_fusion": "19.90 kJ/mol",
        "heat_of_vaporisation": NaN,
        "heat_of_vaporization": "280 kJ/mol",
        "ionisation_energies": NaN,
        "ionization_energies": "1st: 589.3 kJ/mol, 2nd: 1150 kJ/mol, 3rd: 2194 kJ/mol",
        "iso": "iso, NA, half-life, DM, DE (MeV), DP, 160Er, syn, 28.58 h, ?, 0.330, 160Ho, 162Er, 0.139%, 162Er is stable with 94 neutrons, 164Er, 1.601%, 164Er is stable with 96 neutrons, 165Er, syn, 10.36 h, ?, 0.376, 165Ho, 166Er, 33.503%, 166Er is stable with 98 neutrons, 167Er, 22.869%, 167Er is stable with 99 neutrons, 168Er, 26.978%, 168Er is stable with 100 neutrons, 169Er, syn, 9.4 d, ??, 0.351, 169Tm, 170Er, 14.910%, 170Er is stable with 102 neutrons, 171Er, syn, 7.516 h, ??, 1.490, 171Tm, 172Er, syn, 49.3 h, ??, 0.891, 172Tm",
        "magnetic_ordering": "paramagnetic at 300 K",
        "melting_point": "1802 K (1529 \u00b0C, 2784 \u00b0F)",
        "mohs_hardness": NaN,
        "molar_heat_capacity": "28.12 J/(mol\u00b7K)",
        "molar_volume": NaN,
        "name": "Erbium",
        "named_by": NaN,
        "naming": "after Ytterby (Sweden), where it was mined",
        "oxidation_states": "3, 2, 1 (a basic oxide)",
        "p_(pa)": "vapor pressure, P (Pa), 1, 10, 100, 1 k, 10 k, 100 k, at T (K), 1504, 1663, (1885), (2163), (2552), (3132)",
        "per_shell": "2, 8, 18, 30, 8, 2",
        "period": 6,
        "phase": "solid",
        "poisson_ratio": "0.237",
        "prediction": NaN,
        "pronunciation": "/???rbi?m/, UR-bee-?m",
        "proposed_formal_name": NaN,
        "recognised_as_an_element_by": NaN,
        "recognized_as_a_distinct_element_by": NaN,
        "recognized_as_a_unique_metal_by": NaN,
        "recognized_as_an_element_by": NaN,
        "shear_modulus": "28.3 GPa",
        "speed_of_sound": NaN,
        "speed_of_sound_thin_rod": "2830 m/s (at 20 \u00b0C)",
        "sublimation_point": NaN,
        "symbol": "Er",
        "tensile_strength": NaN,
        "thermal_conductivity": "14.5 W/(m\u00b7K)",
        "thermal_diffusivity": NaN,
        "thermal_expansion": "poly: 12.2 \u00b5m/(m\u00b7K) (r.t.)",
        "triple_point": NaN,
        "van_der_waals_radius": NaN,
        "vickers_hardness": "430\u2013700 MPa",
        "when_liquid_at_bp": NaN,
        "when_liquid_at_mp": "8.86 g/cm3",
        "youngs_modulus": "69.9 GPa"
    }
}