{
    "niobium_Nb": {
        "allotropes": NaN,
        "alternative_name": "columbium",
        "alternative_names": NaN,
        "appearance": "gray metallic, bluish when oxidized",
        "at_t_(k)": 2942.0,
        "atomic_number": 41,
        "atomic_radius": "empirical: 146 pm",
        "atomic_weight": "92.90637(2)",
        "band_gap": NaN,
        "boiling_point": "5017 K (4744 \u00b0C, 8571 \u00b0F)",
        "brinell_hardness": "735\u20132450 MPa",
        "bulk_modulus": "170 GPa",
        "cas_number": "7440-03-1",
        "color": NaN,
        "covalent_radius": "164\u00b16 pm",
        "critical_point": NaN,
        "crystal_structure": "body-centered cubic (bcc)",
        "curie_point": NaN,
        "density_at_stp": NaN,
        "density_near_rt": "8.57 g/cm3",
        "density_when_liquid_at_mp": NaN,
        "discovery": "Charles Hatchett (1801)",
        "discovery_and_first_isolation": NaN,
        "electrical_resistivity": "152 n?\u00b7m (at 0 \u00b0C)",
        "electron_configuration": "[Kr] 4d4 5s1",
        "electronegativity": "Pauling scale: 1.6",
        "element_category": "transition metal",
        "first_isolation": "Christian Wilhelm Blomstrand (1864)",
        "group_block": "group 5, d-block",
        "heat_of_fusion": "30 kJ/mol",
        "heat_of_vaporisation": NaN,
        "heat_of_vaporization": "689.9 kJ/mol",
        "ionisation_energies": NaN,
        "ionization_energies": "1st: 652.1 kJ/mol, 2nd: 1380 kJ/mol, 3rd: 2416 kJ/mol",
        "iso": "iso\nNA\nhalf-life\nDM\nDE (MeV)\nDP\n\n\n90Nb\nsyn\n14.6 h\n?+\n\u2013\n90Zr\n\n\n91Nb\nsyn\n680 y\n?\n\u2013\n91Zr\n\n\n91mNb\nsyn\n60.86 d\nIT\n0.104e\n91Nb\n\n\n92m1Nb\nsyn\n10.15 d\n?\n\u2013\n92Zr\n\n\n?\n0.934\n\u2013\n\n\n92Nb\ntrace\n3.47\u00d7107 y\n?\n\u2013\n92Zr\n\n\n?\n0.561, 0.934\n\u2013\n\n\n93Nb\n100%\n93Nb is stable with 52 neutrons\n\n\n93mNb\nsyn\n16.13 y\nIT\n0.031e\n93Nb\n\n\n94Nb\ntrace\n20300 y\n??\n0.471\n94Mo\n\n\n?\n0.702, 0.871\n\u2013\n\n\n95Nb\nsyn\n34.991 d\n??\n0.159\n95Mo\n\n\n?\n0.765\n\u2013\n\n\n95mNb\nsyn\n3.61 d\nIT\n0.235\n95Nb\n\n\n96Nb\nsyn\n23.4 h\n??\n\u2013\n96Mo",
        "magnetic_ordering": "paramagnetic",
        "melting_point": "2750 K (2477 \u00b0C, 4491 \u00b0F)",
        "mohs_hardness": "6",
        "molar_heat_capacity": "24.60 J/(mol\u00b7K)",
        "molar_volume": NaN,
        "name": "Niobium",
        "named_by": NaN,
        "naming": "after Niobe in Greek mythology, daughter of Tantalus (tantalum)",
        "oxidation_states": "5, 4, 3, 2, 1, ?1, ?3 (a mildly acidic oxide)",
        "p_(pa)": "vapor pressure, P (Pa), 1, 10, 100, 1 k, 10 k, 100 k, at T (K), 2942, 3207, 3524, 3910, 4393, 5013",
        "per_shell": "2, 8, 18, 12, 1",
        "period": 5,
        "phase": "solid",
        "poisson_ratio": "0.4",
        "prediction": NaN,
        "pronunciation": "/na??o?bi?m/, ny-OH-bee-?m",
        "proposed_formal_name": NaN,
        "recognised_as_an_element_by": NaN,
        "recognized_as_a_distinct_element_by": "Heinrich Rose (1844)",
        "recognized_as_a_unique_metal_by": NaN,
        "recognized_as_an_element_by": NaN,
        "shear_modulus": "38 GPa",
        "speed_of_sound": NaN,
        "speed_of_sound_thin_rod": "3480 m/s (at 20 \u00b0C)",
        "sublimation_point": NaN,
        "symbol": "Nb",
        "tensile_strength": NaN,
        "thermal_conductivity": "53.7 W/(m\u00b7K)",
        "thermal_diffusivity": NaN,
        "thermal_expansion": "7.3 \u00b5m/(m\u00b7K)",
        "triple_point": NaN,
        "van_der_waals_radius": NaN,
        "vickers_hardness": "870\u20131320 MPa",
        "when_liquid_at_bp": NaN,
        "when_liquid_at_mp": NaN,
        "youngs_modulus": "105 GPa"
    }
}