{
    "lutetium_Lu": {
        "allotropes": NaN,
        "alternative_name": NaN,
        "alternative_names": NaN,
        "appearance": "silvery white",
        "at_t_(k)": 1906.0,
        "atomic_number": 71,
        "atomic_radius": "empirical: 174 pm",
        "atomic_weight": "174.9668(1)",
        "band_gap": NaN,
        "boiling_point": "3675 K (3402 \u00b0C, 6156 \u00b0F)",
        "brinell_hardness": "890\u20131300 MPa",
        "bulk_modulus": "47.6 GPa",
        "cas_number": "7439-94-3",
        "color": NaN,
        "covalent_radius": "187\u00b18 pm",
        "critical_point": NaN,
        "crystal_structure": "hexagonal close-packed (hcp)",
        "curie_point": NaN,
        "density_at_stp": NaN,
        "density_near_rt": "9.841 g/cm3",
        "density_when_liquid_at_mp": NaN,
        "discovery": NaN,
        "discovery_and_first_isolation": "Carl Auer von Welsbach (1906)",
        "electrical_resistivity": "poly: 582 n?\u00b7m (at r.t.)",
        "electron_configuration": "[Xe] 6s2 4f14 5d1",
        "electronegativity": "Pauling scale: 1.27",
        "element_category": "lanthanide, sometimes considered a transition metal",
        "first_isolation": NaN,
        "group_block": "group n/a, d-block",
        "heat_of_fusion": "ca. 22 kJ/mol",
        "heat_of_vaporisation": NaN,
        "heat_of_vaporization": "414 kJ/mol",
        "ionisation_energies": NaN,
        "ionization_energies": "1st: 523.5 kJ/mol, 2nd: 1340 kJ/mol, 3rd: 2022.3 kJ/mol",
        "iso": "iso, NA, half-life, DM, DE (MeV), DP, 173Lu, syn, 1.37 y, ?, 0.671, 173Yb, 174Lu, syn, 3.31 y, ?, 1.374, 174Yb, 175Lu, 97.401%, 175Lu is stable with 104 neutrons, 176Lu, 2.599%, 3.78\u00d71010 y, ??, 1.193, 176Hf",
        "magnetic_ordering": "paramagnetic",
        "melting_point": "1925 K (1652 \u00b0C, 3006 \u00b0F)",
        "mohs_hardness": NaN,
        "molar_heat_capacity": "26.86 J/(mol\u00b7K)",
        "molar_volume": NaN,
        "name": "Lutetium",
        "named_by": "Georges Urbain (1906)",
        "naming": "after Lutetia, Latin for: Paris, in the Roman era",
        "oxidation_states": "3, 2, 1 (a weakly basic oxide)",
        "p_(pa)": "vapor pressure, P (Pa), 1, 10, 100, 1 k, 10 k, 100 k, at T (K), 1906, 2103, 2346, (2653), (3072), (3663)",
        "per_shell": "2, 8, 18, 32, 9, 2",
        "period": 6,
        "phase": "solid",
        "poisson_ratio": "0.261",
        "prediction": NaN,
        "pronunciation": "/lju??ti??i?m/, lew-TEE-shee-?m",
        "proposed_formal_name": NaN,
        "recognised_as_an_element_by": NaN,
        "recognized_as_a_distinct_element_by": NaN,
        "recognized_as_a_unique_metal_by": NaN,
        "recognized_as_an_element_by": NaN,
        "shear_modulus": "27.2 GPa",
        "speed_of_sound": NaN,
        "speed_of_sound_thin_rod": NaN,
        "sublimation_point": NaN,
        "symbol": "Lu",
        "tensile_strength": NaN,
        "thermal_conductivity": "16.4 W/(m\u00b7K)",
        "thermal_diffusivity": NaN,
        "thermal_expansion": "poly: 9.9 \u00b5m/(m\u00b7K) (at r.t.)",
        "triple_point": NaN,
        "van_der_waals_radius": NaN,
        "vickers_hardness": "755\u20131160 MPa",
        "when_liquid_at_bp": NaN,
        "when_liquid_at_mp": "9.3 g/cm3",
        "youngs_modulus": "68.6 GPa"
    }
}