var element_data = {
    "wiki": "https://en.wikipedia.org/wiki/Lutetium",
    "video": "https://www.youtube.com/watch?v=7wrDfRnRHqI&list=PL7A1F4CF36C085DE1&index=71",
    "image": "Lutetium/lutetium.jpg",
    "species": "ALKALINE EARTH METALS",
    "symbol": "Lu",
    "latin_name": "Lutetium",
    "english_name": "Lutetium",
    "year_discovered": "1774",
    "discovered_by": "Humphry Davy",
    "Electron_shell": [
        {
            "K": 2
        },
        {
            "L": 8
        },
        {
            "M": 18
        },
        {
            "N": 32
        },
        {
            "O": 9
        },
        {
            "P": 2
        },
        {
            "Q": 0
        },
        {
            "R": 0
        }
    ],
    "epn_no": [
        {
            "electrons": 71,
        },
        {
            "protons": 71,
        },
        {
            "neutrons": 104
        }
    ],
    "atomic_number": 56,
    "atomic_weight": "174.967 (g/mol)",
    "density": "9.84 (g/cm³)",
    "melting_point": "1663 °C = 3025.40 °F = 1936.15 K",
    "boiling_point": "3395 °C = 6143.00 °F = 3668.15 K",
    "valence_electrons": "3",
    "period": 6,
    "group": "II A",
    "block": "d-block",
    "emission_spectrum": "Lutetium/Lu.gif",
    "phase": "Solid",
    "phase_icon": "----",
    "fusion_heat": "22 (kJ &middot K)",
    "specific_heat": "154 J/(kg &middot; K)",
    "thermal_expansion": "9.9 &middot; 10<sup>-6</sup>°C<sup>-1</sup>)",
    "vaporization_heat": "415 kJ &middot; mol",
    "electron_configuration": "[Xe] 6s<sup>2</sup> 4f<sup>14</sup> 5d<sup>1</sup>",
    "oxidation_state": "+3",
    "ion_charge": "Lu<sup>3+</sup>",
    "ionization_potential": "---- eV",
    "atomic_radius": "175 (pm)",
    "covalent_radius": "160 (pm)",
    "van_der_waals_radius": "---- (pm)",
    "electrical_conductivity": "1.8 &middot; 10<sup>6</sup>",
    "electrical_type": "Conductor", 
    "magnetic_type": "----",
    "volume_susceptibility": "0.0000118",
    "mass_susceptibility": "0.0000000012",
    "molar_susceptibility": "2.1 &middot; 10<sup>-10</sup> m<sup>3</sup>/mol",
    "resistivity": "5.6 &middot; 10<sup>-7</sup> m\u03A9",
    "superconducting_point": "----",
    "lattice_structure": "Lutetium/Hexagonal_close_packed.svg.png",
    "crystal_structure": "Hexagonal close-packed",
    "grid": "a=3.503 \u212B; c=5.551 \u212B",
    "attitude": "1.585",
    "debye_temperature": "----",
    "space_group_name": "----",
    "space_group_number": "166",
    "CAS_number": "CAS7439-94-3",
    "CID_number": "CID23929",
    "RTEC_number": "----",
    "brinell_hardness": "890-1300 MPa",
    "mohs_hardness": "----",
    "vickers_hardness": "755-1160 MPa",
    "bulk_modulus": "47.6 GPa",
    "Young_modulus": "68.6 GPa",
    "liquid_density": "9.3 (g/cm<sup>3</sup>)",
    "molar_volume": "17.8 (cm<sup>3</sup>/mol)",
    "poisson_ratio": "0.26 &micor;",
    "shear_modulus": "27 GPa",
    "sound_speed": "---- m/s",
    "refractive_index": "----",
    "thermal_conductivity": "16 W/mK",
    "electronegative": "Pauling Scale 1.27",
    "electron_affinity": "50 KJ/mol",
    "radioactivity": "no",
    "half_life": "\u221E",
    "life_time": "\u221E",
    "barn": "84 b",
    "hazard_block": [
        {
            "red": "-"
        },
        {
            "yellow": "-"
        },
        {
            "blue": "-"
        },
        {
            "white": "-"
        }
    ],
    "fire_hazard": "----",
    "health_hazard":"----",
    "reactivity": "----",
    "specific": "----",
    "universe_contains": "---- %",
    "sun_contains": "1 &middot; 10<sup>-7</sup> %",
    "oceans_contains": "1.5 &middot; 10<sup>-11</sup> %",
    "human_body_contains": "---- %",
    "earth_crust_contains": "0.000057 %",
    "meteorites_contains": "2.9 &middot; 10<sup>-6</sup> %",
    "start_isotope_number": 150,
    "stop_isotope_number": 153,
    "half_life_number": ["43 ms", "80.6 ms", "650 ms", "900 ms"],
    "iso_weight": [149.97323, 150.96758, 141.96412, 152.95877]
}