{
    "praseodymium_Pr": {
        "allotropes": NaN,
        "alternative_name": NaN,
        "alternative_names": NaN,
        "appearance": "grayish white",
        "at_t_(k)": 1771.0,
        "atomic_number": 59,
        "atomic_radius": "empirical: 182 pm",
        "atomic_weight": "140.90766(2)",
        "band_gap": NaN,
        "boiling_point": "3403 K (3130 \u00b0C, 5666 \u00b0F)",
        "brinell_hardness": "250\u2013640 MPa",
        "bulk_modulus": "? form: 28.8 GPa",
        "cas_number": "7440-10-0",
        "color": NaN,
        "covalent_radius": "203\u00b17 pm",
        "critical_point": NaN,
        "crystal_structure": "double hexagonal close-packed (dhcp)",
        "curie_point": NaN,
        "density_at_stp": NaN,
        "density_near_rt": "6.77 g/cm3",
        "density_when_liquid_at_mp": NaN,
        "discovery": "Carl Auer von Welsbach (1885)",
        "discovery_and_first_isolation": NaN,
        "electrical_resistivity": "?, poly: 0.700 \u00b5?\u00b7m (at r.t.)",
        "electron_configuration": "[Xe] 4f3 6s2",
        "electronegativity": "Pauling scale: 1.13",
        "element_category": "lanthanide",
        "first_isolation": NaN,
        "group_block": "group n/a, f-block",
        "heat_of_fusion": "6.89 kJ/mol",
        "heat_of_vaporisation": NaN,
        "heat_of_vaporization": "331 kJ/mol",
        "ionisation_energies": NaN,
        "ionization_energies": "1st: 527 kJ/mol, 2nd: 1020 kJ/mol, 3rd: 2086 kJ/mol",
        "iso": "iso, NA, half-life, DM, DE (MeV), DP, 141Pr, 100%, 141Pr is stable with 82 neutrons, 142Pr, syn, 19.12 h, ??, 2.162, 142Nd, ?, 0.745, 142Ce, 143Pr, syn, 13.57 d, ??, 0.934, 143Nd",
        "magnetic_ordering": "paramagnetic",
        "melting_point": "1208 K (935 \u00b0C, 1715 \u00b0F)",
        "mohs_hardness": NaN,
        "molar_heat_capacity": "27.20 J/(mol\u00b7K)",
        "molar_volume": NaN,
        "name": "Praseodymium",
        "named_by": NaN,
        "naming": NaN,
        "oxidation_states": "5, 4, 3, 2 (a mildly basic oxide)",
        "p_(pa)": "vapor pressure, P (Pa), 1, 10, 100, 1 k, 10 k, 100 k, at T (K), 1771, 1973, (2227), (2571), (3054), (3779)",
        "per_shell": "2, 8, 18, 21, 8, 2",
        "period": 6,
        "phase": "solid",
        "poisson_ratio": "? form: 0.281",
        "prediction": NaN,
        "pronunciation": "/pre?zi???d?mi?m/, pray-zee-?-DIM-ee-?m",
        "proposed_formal_name": NaN,
        "recognised_as_an_element_by": NaN,
        "recognized_as_a_distinct_element_by": NaN,
        "recognized_as_a_unique_metal_by": NaN,
        "recognized_as_an_element_by": NaN,
        "shear_modulus": "? form: 14.8 GPa",
        "speed_of_sound": NaN,
        "speed_of_sound_thin_rod": "2280 m/s (at 20 \u00b0C)",
        "sublimation_point": NaN,
        "symbol": "Pr",
        "tensile_strength": NaN,
        "thermal_conductivity": "12.5 W/(m\u00b7K)",
        "thermal_diffusivity": NaN,
        "thermal_expansion": "?, poly: 6.7 \u00b5m/(m\u00b7K) (at r.t.)",
        "triple_point": NaN,
        "van_der_waals_radius": NaN,
        "vickers_hardness": "250\u2013745 MPa",
        "when_liquid_at_bp": NaN,
        "when_liquid_at_mp": "6.50 g/cm3",
        "youngs_modulus": "? form: 37.3 GPa"
    }
}