{
    "hafnium_Hf": {
        "allotropes": NaN,
        "alternative_name": NaN,
        "alternative_names": NaN,
        "appearance": "steel gray",
        "at_t_(k)": 2689.0,
        "atomic_number": 72,
        "atomic_radius": "empirical: 159 pm",
        "atomic_weight": "178.49(2)",
        "band_gap": NaN,
        "boiling_point": "4876 K (4603 \u00b0C, 8317 \u00b0F)",
        "brinell_hardness": "1450\u20132100 MPa",
        "bulk_modulus": "110 GPa",
        "cas_number": "7440-58-6",
        "color": NaN,
        "covalent_radius": "175\u00b110 pm",
        "critical_point": NaN,
        "crystal_structure": "hexagonal close-packed (hcp)",
        "curie_point": NaN,
        "density_at_stp": NaN,
        "density_near_rt": "13.31 g/cm3",
        "density_when_liquid_at_mp": NaN,
        "discovery": NaN,
        "discovery_and_first_isolation": "Dirk Coster and George de Hevesy (1922)",
        "electrical_resistivity": "331 n?\u00b7m (at 20 \u00b0C)",
        "electron_configuration": "[Xe] 4f14 5d2 6s2",
        "electronegativity": "Pauling scale: 1.3",
        "element_category": "transition metal",
        "first_isolation": NaN,
        "group_block": "group 4, d-block",
        "heat_of_fusion": "27.2 kJ/mol",
        "heat_of_vaporisation": NaN,
        "heat_of_vaporization": "648 kJ/mol",
        "ionisation_energies": NaN,
        "ionization_energies": "1st: 658.5 kJ/mol, 2nd: 1440 kJ/mol, 3rd: 2250 kJ/mol",
        "iso": "iso, NA, half-life, DM, DE (MeV), DP, 172Hf, syn, 1.87 y, ?, 0.350, 172Lu, 174Hf, 0.16%, 2\u00d71015 y, ?, 2.495, 170Yb, 176Hf, 5.26%, 176Hf is stable with 104 neutrons, 177Hf, 18.60%, 177Hf is stable with 105 neutrons, 178Hf, 27.28%, 178Hf is stable with 106 neutrons, 178m2Hf, syn, 31 y, IT, 2.446, 178Hf, 179Hf, 13.62%, 179Hf is stable with 107 neutrons, 180Hf, 35.08%, 180Hf is stable with 108 neutrons, 182Hf, syn, 8.9\u00d7106 y, ??, 0.373, 182Ta",
        "magnetic_ordering": "paramagnetic",
        "melting_point": "2506 K (2233 \u00b0C, 4051 \u00b0F)",
        "mohs_hardness": "5.5",
        "molar_heat_capacity": "25.73 J/(mol\u00b7K)",
        "molar_volume": NaN,
        "name": "Hafnium",
        "named_by": NaN,
        "naming": "after Hafnia. Latin for: Copenhagen, where it was discovered",
        "oxidation_states": "4, 3, 2, 1, ?2 (an amphoteric oxide)",
        "p_(pa)": "vapor pressure, P (Pa), 1, 10, 100, 1 k, 10 k, 100 k, at T (K), 2689, 2954, 3277, 3679, 4194, 4876",
        "per_shell": "2, 8, 18, 32, 10, 2",
        "period": 6,
        "phase": "solid",
        "poisson_ratio": "0.37",
        "prediction": "Dmitri Mendeleev (1869)",
        "pronunciation": "/?h\u00e6fni?m/, HAF-nee-?m",
        "proposed_formal_name": NaN,
        "recognised_as_an_element_by": NaN,
        "recognized_as_a_distinct_element_by": NaN,
        "recognized_as_a_unique_metal_by": NaN,
        "recognized_as_an_element_by": NaN,
        "shear_modulus": "30 GPa",
        "speed_of_sound": NaN,
        "speed_of_sound_thin_rod": "3010 m/s (at 20 \u00b0C)",
        "sublimation_point": NaN,
        "symbol": "Hf",
        "tensile_strength": NaN,
        "thermal_conductivity": "23.0 W/(m\u00b7K)",
        "thermal_diffusivity": NaN,
        "thermal_expansion": "5.9 \u00b5m/(m\u00b7K) (at 25 \u00b0C)",
        "triple_point": NaN,
        "van_der_waals_radius": NaN,
        "vickers_hardness": "1520\u20132060 MPa",
        "when_liquid_at_bp": NaN,
        "when_liquid_at_mp": "12 g/cm3",
        "youngs_modulus": "78 GPa"
    }
}