var element_data = {
    "wiki": "https://en.wikipedia.org/wiki/Hafnium",
    "video": "https://www.youtube.com/watch?v=egw79BA_0PA&list=PL7A1F4CF36C085DE1&index=72",
    "image": "Hafnium/hafnium.jpg",
    "species": "ALKALINE EARTH METALS",
    "symbol": "Hf",
    "latin_name": "Hafnium",
    "english_name": "Hafnium",
    "year_discovered": "1923",
    "discovered_by": "----",
    "Electron_shell": [
        {
            "K": 2
        },
        {
            "L": 8
        },
        {
            "M": 18
        },
        {
            "N": 32
        },
        {
            "O": 10
        },
        {
            "P": 2
        },
        {
            "Q": 0
        },
        {
            "R": 0
        }
    ],
    "epn_no": [
        {
            "electrons": 72,
        },
        {
            "protons": 72,
        },
        {
            "neutrons": 107
        }
    ],
    "atomic_number": 72,
    "atomic_weight": "178.49 (g/mol)",
    "density": "13.31 (g/cm³)",
    "melting_point": "2233 °C = 4051.4 °F = 2506.15 K",
    "boiling_point": "4603 °C = 8317.4 °F = 4876.15 K",
    "valence_electrons": "4",
    "period": 6,
    "group": "IV B",
    "block": "d-block",
    "emission_spectrum": "Hafnium/Hf.gif",
    "phase": "Solid",
    "phase_icon": "----",
    "fusion_heat": "25.5 (kJ &middot K)",
    "specific_heat": "144 J/(kg &middot; K)",
    "thermal_expansion": "5.9 &middot; 10<sup>-6</sup>°C<sup>-1</sup>)",
    "vaporization_heat": "630 kJ &middot; mol",
    "electron_configuration": "[Xe] 3s<sup>2</sup>4f<sup>14</sup>5d<sup>2</sup>",
    "oxidation_state": "-2, +1, +2, +3, +4",
    "ion_charge": "He<sup>4+</sup>",
    "ionization_potential": "---- eV",
    "atomic_radius": "167 (pm)",
    "covalent_radius": "150 (pm)",
    "van_der_waals_radius": "---- (pm)",
    "electrical_conductivity": "3.3 &middot; 10<sup>6</sup>",
    "electrical_type": "Conductor", 
    "magnetic_type": "----",
    "volume_susceptibility": "0.0000705",
    "mass_susceptibility": "0.0000000053",
    "molar_susceptibility": "9.46 &middot; 10<sup>-10</sup> m<sup>3</sup>/mol",
    "resistivity": "3 &middot; 10<sup>-7</sup> m\u03A9",
    "superconducting_point": "----",
    "lattice_structure": "Hafnium/Hexagonal_close_packed.svg.png",
    "crystal_structure": "Hexagonal close-packed",
    "grid": "a=3.196 \u212B; c=5.051 \u212B",
    "attitude": "1.580",
    "debye_temperature": "----",
    "space_group_name": "----",
    "space_group_number": "194",
    "CAS_number": "CAS7440-58-6",
    "CID_number": "CID23986",
    "RTEC_number": "RTECSMG4600000",
    "brinell_hardness": "1450-2100 MPa",
    "mohs_hardness": "5.5",
    "vickers_hardness": "1520-2060",
    "bulk_modulus": "110 GPa",
    "Young_modulus": "78 GPa",
    "liquid_density": "12 (g/cm<sup>3</sup>)",
    "molar_volume": "13.6 (cm<sup>3</sup>/mol)",
    "poisson_ratio": "0.37 &micro;",
    "shear_modulus": "30 GPa",
    "sound_speed": "3010 m/s",
    "refractive_index": "*----",
    "thermal_conductivity": "23 W/mK",
    "electronegative": "Pauling Scale 1.3",
    "electron_affinity": "---- KJ/mol",
    "radioactivity": "no",
    "half_life": "\u221E",
    "life_time": "\u221E",
    "barn": "104 b",
    "hazard_block": [
        {
            "red": "-"
        },
        {
            "yellow": "-"
        },
        {
            "blue": "-"
        },
        {
            "white": "-"
        }
    ],
    "fire_hazard": "----",
    "health_hazard":"----",
    "reactivity": "----",
    "specific": "----",
    "universe_contains": "---- %",
    "sun_contains": "1 &middot; 10<sup>-7</sup> %",
    "oceans_contains": "8 &middot; 10<sup>-6</sup> %",
    "human_body_contains": "---- %",
    "earth_crust_contains": "0.00033 %",
    "meteorites_contains": "0.000017 %",
    "start_isotope_number": 153,
    "stop_isotope_number": 166,
    "half_life_number": ["400 ns", "2 s", "590 &micro;", "23 ms", "115 ms", "2.84 s", "5.20 s", "13.6 s", "18.2 s", "39.4 s", "40 s", "111 s", "76 s", "6.77 m"],
    "iso_weight": [152.97069, 153.96486, 154.96339, 155.95936, 156.95840, 157.954799, 158.953995, 159.950684, 160.950275, 161.94721, 162.94709, 163.94436, 164.94457, 165.94218]
}