{
    "aluminium_Al": {
        "allotropes": NaN,
        "alternative_name": "aluminum (US)",
        "alternative_names": NaN,
        "appearance": "silvery gray metallic",
        "at_t_(k)": 1482.0,
        "atomic_number": 13,
        "atomic_radius": "empirical: 143 pm",
        "atomic_weight": "26.9815385(7)",
        "band_gap": NaN,
        "boiling_point": "2743 K (2470 \u00b0C, 4478 \u00b0F)",
        "brinell_hardness": "160\u2013550 MPa",
        "bulk_modulus": "76 GPa",
        "cas_number": "7429-90-5",
        "color": NaN,
        "covalent_radius": "121\u00b14 pm",
        "critical_point": NaN,
        "crystal_structure": "face-centered cubic (fcc)",
        "curie_point": NaN,
        "density_at_stp": NaN,
        "density_near_rt": "2.70 g/cm3",
        "density_when_liquid_at_mp": NaN,
        "discovery": NaN,
        "discovery_and_first_isolation": NaN,
        "electrical_resistivity": "28.2 n?\u00b7m (at 20 \u00b0C)",
        "electron_configuration": "[Ne] 3s2 3p1",
        "electronegativity": "Pauling scale: 1.61",
        "element_category": "post-transition metal, sometimes considered a metalloid",
        "first_isolation": "Hans Christian \u00d8rsted (1825)",
        "group_block": "group 13, p-block",
        "heat_of_fusion": "10.71 kJ/mol",
        "heat_of_vaporisation": NaN,
        "heat_of_vaporization": "284 kJ/mol",
        "ionisation_energies": NaN,
        "ionization_energies": "1st: 577.5 kJ/mol, 2nd: 1816.7 kJ/mol, 3rd: 2744.8 kJ/mol, (more)",
        "iso": "iso, NA, half-life, DM, DE (MeV), DP, 26Al, trace, 7.17\u00d7105 y, ?+, 1.17, 26Mg, ?, \u2013, 26Mg, ?, 1.8086, \u2013, 27Al, 100%, 27Al is stable with 14 neutrons",
        "magnetic_ordering": "paramagnetic",
        "melting_point": "933.47 K (660.32 \u00b0C, 1220.58 \u00b0F)",
        "mohs_hardness": "2.75",
        "molar_heat_capacity": "24.20 J/(mol\u00b7K)",
        "molar_volume": NaN,
        "name": "Aluminum",
        "named_by": "Humphry Davy (1807)",
        "naming": NaN,
        "oxidation_states": "+3, +2, +1, ?1, ?2 (an amphoteric oxide)",
        "p_(pa)": "vapor pressure, P (Pa), 1, 10, 100, 1 k, 10 k, 100 k, at T (K), 1482, 1632, 1817, 2054, 2364, 2790",
        "per_shell": "2, 8, 3",
        "period": 3,
        "phase": "solid",
        "poisson_ratio": "0.35",
        "prediction": "Antoine Lavoisier (1787)",
        "pronunciation": "UK i/?\u00e6lj??m?ni?m/, AL-ew-MIN-ee-?m, US i/??lju?m?n?m/, ?-LEW-mi-n?m",
        "proposed_formal_name": NaN,
        "recognised_as_an_element_by": NaN,
        "recognized_as_a_distinct_element_by": NaN,
        "recognized_as_a_unique_metal_by": NaN,
        "recognized_as_an_element_by": NaN,
        "shear_modulus": "26 GPa",
        "speed_of_sound": NaN,
        "speed_of_sound_thin_rod": "(rolled) 5000 m/s (at r.t.)",
        "sublimation_point": NaN,
        "symbol": "Al",
        "tensile_strength": NaN,
        "thermal_conductivity": "237 W/(m\u00b7K)",
        "thermal_diffusivity": NaN,
        "thermal_expansion": "23.1 \u00b5m/(m\u00b7K) (at 25 \u00b0C)",
        "triple_point": NaN,
        "van_der_waals_radius": "184 pm",
        "vickers_hardness": "160\u2013350 MPa",
        "when_liquid_at_bp": NaN,
        "when_liquid_at_mp": "2.375 g/cm3",
        "youngs_modulus": "70 GPa"
    }
}