{
    "palladium_Pd": {
        "allotropes": NaN,
        "alternative_name": NaN,
        "alternative_names": NaN,
        "appearance": "silvery white",
        "at_t_(k)": 1721.0,
        "atomic_number": 46,
        "atomic_radius": "empirical: 137 pm",
        "atomic_weight": "106.42(1)",
        "band_gap": NaN,
        "boiling_point": "3236 K (2963 \u00b0C, 5365 \u00b0F)",
        "brinell_hardness": "320\u2013610 MPa",
        "bulk_modulus": "180 GPa",
        "cas_number": "7440-05-3",
        "color": NaN,
        "covalent_radius": "139\u00b16 pm",
        "critical_point": NaN,
        "crystal_structure": "face-centered cubic (fcc)",
        "curie_point": NaN,
        "density_at_stp": NaN,
        "density_near_rt": "12.023 g/cm3",
        "density_when_liquid_at_mp": NaN,
        "discovery": NaN,
        "discovery_and_first_isolation": "William Hyde Wollaston (1803)",
        "electrical_resistivity": "105.4 n?\u00b7m (at 20 \u00b0C)",
        "electron_configuration": "[Kr] 4d10",
        "electronegativity": "Pauling scale: 2.20",
        "element_category": "transition metal",
        "first_isolation": NaN,
        "group_block": "group 10, d-block",
        "heat_of_fusion": "16.74 kJ/mol",
        "heat_of_vaporisation": NaN,
        "heat_of_vaporization": "358 kJ/mol",
        "ionisation_energies": NaN,
        "ionization_energies": "1st: 804.4 kJ/mol, 2nd: 1870 kJ/mol, 3rd: 3177 kJ/mol",
        "iso": "iso\nNA\nhalf-life\nDM\nDE (MeV)\nDP\n\n\n100Pd\nsyn\n3.63 d\n?\n\u2013\n100Rh\n\n\n?\n0.084, 0.074,\n0.126\n\u2013\n\n\n102Pd\n1.02%\n102Pd is stable with 56 neutrons\n\n\n103Pd\nsyn\n16.991 d\n?\n\u2013\n103Rh\n\n\n104Pd\n11.14%\n104Pd is stable with 58 neutrons\n\n\n105Pd\n22.33%\n105Pd is stable with 59 neutrons\n\n\n106Pd\n27.33%\n106Pd is stable with 60 neutrons\n\n\n107Pd\ntrace\n6.5\u00d7106 y\n??\n0.033\n107Ag\n\n\n108Pd\n26.46%\n108Pd is stable with 62 neutrons\n\n\n110Pd\n11.72%\n110Pd is stable with 64 neutrons",
        "magnetic_ordering": "paramagnetic",
        "melting_point": "1828.05 K (1554.9 \u00b0C, 2830.82 \u00b0F)",
        "mohs_hardness": "4.75",
        "molar_heat_capacity": "25.98 J/(mol\u00b7K)",
        "molar_volume": NaN,
        "name": "Palladium",
        "named_by": NaN,
        "naming": "after asteroid Pallas, itself named after Pallas Athena",
        "oxidation_states": "0, +1, +2, +3, +4, +5, +6 (a mildly basic oxide)",
        "p_(pa)": "vapor pressure, P (Pa), 1, 10, 100, 1 k, 10 k, 100 k, at T (K), 1721, 1897, 2117, 2395, 2753, 3234",
        "per_shell": "2, 8, 18, 18",
        "period": 5,
        "phase": "solid",
        "poisson_ratio": "0.39",
        "prediction": NaN,
        "pronunciation": "/p??le?di?m/, p?-LAY-dee-?m",
        "proposed_formal_name": NaN,
        "recognised_as_an_element_by": NaN,
        "recognized_as_a_distinct_element_by": NaN,
        "recognized_as_a_unique_metal_by": NaN,
        "recognized_as_an_element_by": NaN,
        "shear_modulus": "44 GPa",
        "speed_of_sound": NaN,
        "speed_of_sound_thin_rod": "3070 m/s (at 20 \u00b0C)",
        "sublimation_point": NaN,
        "symbol": "Pd",
        "tensile_strength": NaN,
        "thermal_conductivity": "71.8 W/(m\u00b7K)",
        "thermal_diffusivity": NaN,
        "thermal_expansion": "11.8 \u00b5m/(m\u00b7K) (at 25 \u00b0C)",
        "triple_point": NaN,
        "van_der_waals_radius": "163 pm",
        "vickers_hardness": "400\u2013600 MPa",
        "when_liquid_at_bp": NaN,
        "when_liquid_at_mp": "10.38 g/cm3",
        "youngs_modulus": "121 GPa"
    }
}