var element_data = {
    "wiki": "https://en.wikipedia.org/wiki/Palladium",
    "video": "https://www.youtube.com/watch?v=4ALTGeqmNFM&list=PL7A1F4CF36C085DE1&index=46",
    "image": "Palladium/palladium.jpg",
    "species": "TRANSITION METALS",
    "symbol": "Pd",
    "latin_name": "Palladium",
    "english_name": "Palladium",
    "year_discovered": "1803",
    "discovered_by": "William Hyde Wollaston",
    "Electron_shell": [
        {
            "K": 2
        },
        {
            "L": 8
        },
        {
            "M": 18
        },
        {
            "N": 18
        },
        {
            "O": 0
        },
        {
            "P": 0
        },
        {
            "Q": 0
        },
        {
            "R": 0
        }
    ],
    "epn_no": [
        {
            "electrons": 46,
        },
        {
            "protons": 46,
        },
        {
            "neutrons": 60
        }
    ],
    "atomic_number": 46,
    "atomic_weight": "137.327 (g/mol)",
    "density": "12.02 (g/cm³)",
    "melting_point": "1555 °C = 2831.00 °F = 1828.15 K",
    "boiling_point": "2963 °C = 5365.40 °F = 3236.15 K",
    "valence_electrons": 4,
    "period": 5,
    "group": "VIII B",
    "block": "d-block",
    "emission_spectrum": "Palladium/Pd.gif",
    "phase": "Solid",
    "phase_icon": "----",
    "fusion_heat": "16.7 (kJ &middot K)",
    "specific_heat": "240 J/(kg &middot; K)",
    "thermal_expansion": "11.8 &middot; 10<sup>-6</sup>°C<sup>-1</sup>)",
    "vaporization_heat": "380 kJ &middot; mol",
    "electron_configuration": "[Kr] 4d<sup>10</sup>",
    "oxidation_state": "+1, +2, +3, +4",
    "ion_charge": "Pd<sup>2+</sup>, Pd<sup>4+</sup>",
    "ionization_potential": "8.3 eV",
    "atomic_radius": "137 (pm)",
    "covalent_radius": "131 (pm)",
    "van_der_waals_radius": "163 (pm)",
    "electrical_conductivity": "1 &middot; 10<sup>7</sup>",
    "electrical_type": "Conductor", 
    "magnetic_type": "Paramagnetic",
    "volume_susceptibility": "0.0007899",
    "mass_susceptibility": "0.0000000657",
    "molar_susceptibility": "6.992 &middot; 10<sup>-9</sup> m<sup>3</sup>/mol",
    "resistivity": "1 &middot; 10<sup>-7</sup> m\u03A9",
    "superconducting_point": "----",
    "lattice_structure": "Palladium/Cubic-face-centered.svg.png",
    "crystal_structure": "Face-centered cubic",
    "grid": "a=3.890 \u212B",
    "attitude": "----",
    "debye_temperature": "0.85 °C = 33.53 °F = 274 K",
    "space_group_name": "Im_3m",
    "space_group_number": "225",
    "CAS_number": "CAS7440-05-3",
    "CID_number": "CID23938",
    "RTEC_number": "RTECSRT3480500",
    "brinell_hardness": "320-610 MPa",
    "mohs_hardness": "5",
    "vickers_hardness": "400-600 MPa",
    "bulk_modulus": "180 GPa",
    "Young_modulus": "121 GPa",
    "liquid_density": "10.38 (g/cm<sup>3</sup>)",
    "molar_volume": "8.9 (cm<sup>3</sup>/mol)",
    "poisson_ratio": "0.39 &micro;",
    "shear_modulus": "44 GPa",
    "sound_speed": "3070 m/s",
    "refractive_index": "----",
    "thermal_conductivity": "72 W/mK",
    "electronegative": "Pauling Scale 2.2",
    "electron_affinity": "53.7 KJ/mol",
    "radioactivity": "no",
    "half_life": "\u221E",
    "life_time": "\u221E",
    "barn": "6.9 b",
    "hazard_block": [
        {
            "red": "0"
        },
        {
            "yellow": "0"
        },
        {
            "blue": "1"
        },
        {
            "white": "-"
        }
    ],
    "fire_hazard": "Will not burn",
    "health_hazard":"Slightly Hazardous",
    "reactivity": "Stable",
    "specific": "----",
    "universe_contains": "2 &middot; 10<sup>-7</sup> %",
    "sun_contains": "3 &middot; 10<sup>-7</sup> %",
    "oceans_contains": "---- %",
    "human_body_contains": "---- %",
    "earth_crust_contains": "6.3 &middot; 10<sup>-7</sup> %",
    "meteorites_contains": "0.000065 %",
    "start_isotope_number": 91,
    "stop_isotope_number": 94,
    "half_life_number": ["10 s", "1.1 s", "1.07 s", "9.0 s"],
    "iso_weight": [90.84911, 91.94042, 92.93591, 93.92877]
}