var element_data = {
    "wiki": "https://en.wikipedia.org/wiki/Fluorine",
    "video": "https://www.youtube.com/watch?v=vtWp45Eewtw&list=PL7A1F4CF36C085DE1&index=9",
    "image": "Fluorine/fluorine.jpg",
    "species": "ALKALINE EARTH METALS",
    "symbol": "F",
    "latin_name": "Fluorine",
    "english_name": "Fluorine",
    "year_discovered": "1886",
    "discovered_by": "Ferdinand Frederic Henri Moissan",
    "Electron_shell": [
        {
            "K": 2
        },
        {
            "L": 7
        },
        {
            "M": 0
        },
        {
            "N": 0
        },
        {
            "O": 0
        },
        {
            "P": 0
        },
        {
            "Q": 0
        },
        {
            "R": 0
        }
    ],
    "epn_no": [
        {
            "electrons": 9,
        },
        {
            "protons": 9,
        },
        {
            "neutrons": 10
        }
    ],
    "atomic_number": 9,
    "atomic_weight": "18.9984 (g/mol)",
    "density": "0.001696 (g/cm³)",
    "melting_point": "-219.67 °C = -363.41 °F = 53.48 K",
    "boiling_point": "-188.11 °C = -306.60 °F = 85.04 K",
    "valence_electrons": "12",
    "period": 2,
    "group": "VII A",
    "block": "p-block",
    "emission_spectrum": "Fluorine/F.gif",
    "phase": "Gas",
    "phase_icon": "----",
    "fusion_heat": "0.26 (kJ &middot K)",
    "specific_heat": "824 J/(kg &middot; K)",
    "thermal_expansion": "---- °C<sup>-1</sup>)",
    "vaporization_heat": "3.27 kJ &middot; mol",
    "electron_configuration": "[He] 2s<sup>2</sup>2p<sup>5</sup>",
    "oxidation_state": "-1",
    "ion_charge": "F<sup>-</sup>",
    "ionization_potential": "18.6 eV",
    "atomic_radius": "73 (pm)",
    "covalent_radius": "71 (pm)",
    "van_der_waals_radius": "147 (pm)",
    "electrical_conductivity": "----",
    "electrical_type": "----", 
    "magnetic_type": "----",
    "volume_susceptibility": "----",
    "mass_susceptibility": "----",
    "molar_susceptibility": "---- m<sup>3</sup>/mol",
    "resistivity": "---- m\u03A9",
    "superconducting_point": "----",
    "lattice_structure": "Fluorine/Lattic_simple_cubic.svg.png",
    "crystal_structure": "Lattic Simple Cubic",
    "grid": "a=5.4780 \u212B; b=3.2701 \u212B; c=7.2651 \u212B",
    "attitude": "----",
    "debye_temperature": "----",
    "space_group_name": "C12/c1",
    "space_group_number": "15",
    "CAS_number": "CAS7782-41-4",
    "CID_number": "CID24524",
    "RTEC_number": "RTECSLM6475000",
    "brinell_hardness": "---- MPa",
    "mohs_hardness": "----",
    "vickers_hardness": "----",
    "bulk_modulus": "--- GPa",
    "Young_modulus": "---- GPa",
    "liquid_density": "---- (g/cm<sup>3</sup>)",
    "molar_volume": "17.1 (cm<sup>3</sup>/mol)",
    "poisson_ratio": "----",
    "shear_modulus": "---- GPa",
    "sound_speed": "---- m/s",
    "refractive_index": "----",
    "thermal_conductivity": "0.0277 W/mK",
    "electronegative": "Pauling Scale 3.98",
    "electron_affinity": "328 KJ/mol",
    "radioactivity": "no",
    "half_life": "\u221E",
    "life_time": "\u221E",
    "barn": "0.0096 b",
    "hazard_block": [
        {
            "red": "0"
        },
        {
            "yellow": "4"
        },
        {
            "blue": "4"
        },
        {
            "white": "-"
        }
    ],
    "fire_hazard": "Will not burn",
    "health_hazard":"Deadly",
    "reactivity": "May detonate",
    "specific": "----",
    "universe_contains": "0.00004 %",
    "sun_contains": "0.00005 %",
    "oceans_contains": "0.00013 %",
    "human_body_contains": "0.0037 %",
    "earth_crust_contains": "0.054 %",
    "meteorites_contains": "0.0087 %",
    "start_isotope_number": 14,
    "stop_isotope_number": 29,
    "half_life_number": ["--", "410 ms", "11 ms", "64.49 s", "109.771 m", "234 ms", "--", "11.163 s", "4.158 s", "4.23 s", "2.23 s", "400 ms", "50 ms", "10.2 ms", "4.9 ms", "2.6 ms", "260 ns", "1 ms"],
    "iso_weight": [14.03506, 15.018010, 16.01146, 17.0209, 18.0009, "--", 19.99998, 20.99994, 22.0029, 23.003570, 24.008120, 25.012100, 26.019620, 27.026790, 29.043260, 30.063600, 31.060430]
}