{
    "fluorine_F": {
        "allotropes": "alpha, beta",
        "alternative_name": NaN,
        "alternative_names": NaN,
        "appearance": "gas: very pale yellow\nliquid: bright yellow\nsolid: alpha is opaque, beta is transparent",
        "at_t_(k)": 38.0,
        "atomic_number": 9,
        "atomic_radius": NaN,
        "atomic_weight": "18.998403163(6)",
        "band_gap": NaN,
        "boiling_point": "85.03 K (?188.11 \u00b0C, ?306.60 \u00b0F)",
        "brinell_hardness": NaN,
        "bulk_modulus": NaN,
        "cas_number": "7782-41-4",
        "color": NaN,
        "covalent_radius": "64 pm",
        "critical_point": "144.41 K, 5.1724 MPa",
        "crystal_structure": "cubic",
        "curie_point": NaN,
        "density_at_stp": "1.696 g/L",
        "density_near_rt": NaN,
        "density_when_liquid_at_mp": NaN,
        "discovery": "Andr\u00e9-Marie Amp\u00e8re (1810)",
        "discovery_and_first_isolation": NaN,
        "electrical_resistivity": NaN,
        "electron_configuration": "[He] 2s2 2p5",
        "electronegativity": "Pauling scale: 3.98",
        "element_category": "diatomic nonmetal",
        "first_isolation": "Henri Moissan (June 26, 1886)",
        "group_block": "group 17 (halogens), p-block",
        "heat_of_fusion": NaN,
        "heat_of_vaporisation": NaN,
        "heat_of_vaporization": "6.51 kJ/mol",
        "ionisation_energies": NaN,
        "ionization_energies": "1st: 1681 kJ/mol, 2nd: 3374 kJ/mol, 3rd: 6147 kJ/mol, (more)",
        "iso": "iso, NA, half-life, DM, DE (MeV), DP, 18F, trace, 109.77 min, ?+ (96.9%), 0.634, 18O, ? (3.1%), 1.656, 18O, 19F, 100%, 19F is stable with 10 neutrons",
        "magnetic_ordering": "diamagnetic (?1.2\u00d710?4)",
        "melting_point": "53.48 K (?219.67 \u00b0C, ?363.41 \u00b0F)",
        "mohs_hardness": NaN,
        "molar_heat_capacity": "Cp: 31 J/(mol\u00b7K) (at 21.1 \u00b0C), Cv: 23 J/(mol\u00b7K) (at 21.1 \u00b0C)",
        "molar_volume": NaN,
        "name": "Fluorine",
        "named_by": "Humphry Davy",
        "naming": "after the mineral fluorite, itself named after Latin fluo (to flow, in smelting)",
        "oxidation_states": "?1 (oxidizes oxygen)",
        "p_(pa)": "vapor pressure, P (Pa), 1, 10, 100, 1 k, 10 k, 100 k, at T (K), 38, 44, 50, 58, 69, 85",
        "per_shell": "2, 7",
        "period": 2,
        "phase": "gas",
        "poisson_ratio": NaN,
        "prediction": NaN,
        "pronunciation": "/?fl??ri?n/, /?fl??r?n/, /?fl??ri?n/\nFLOOR-een, FLOOR-in, FLOHR-een",
        "proposed_formal_name": NaN,
        "recognised_as_an_element_by": NaN,
        "recognized_as_a_distinct_element_by": NaN,
        "recognized_as_a_unique_metal_by": NaN,
        "recognized_as_an_element_by": NaN,
        "shear_modulus": NaN,
        "speed_of_sound": NaN,
        "speed_of_sound_thin_rod": NaN,
        "sublimation_point": NaN,
        "symbol": "F",
        "tensile_strength": NaN,
        "thermal_conductivity": "0.02591 W/(m\u00b7K)",
        "thermal_diffusivity": NaN,
        "thermal_expansion": NaN,
        "triple_point": "53.48 K, 90 kPa",
        "van_der_waals_radius": "135 pm",
        "vickers_hardness": NaN,
        "when_liquid_at_bp": "1.505 g/cm3",
        "when_liquid_at_mp": NaN,
        "youngs_modulus": NaN
    }
}