{
    "rubidium_Rb": {
        "allotropes": NaN,
        "alternative_name": NaN,
        "alternative_names": NaN,
        "appearance": "grey white",
        "at_t_(k)": 434.0,
        "atomic_number": 37,
        "atomic_radius": "empirical: 248 pm",
        "atomic_weight": "85.4678(3)",
        "band_gap": NaN,
        "boiling_point": "961 K (688 \u00b0C, 1270 \u00b0F)",
        "brinell_hardness": "0.216 MPa",
        "bulk_modulus": "2.5 GPa",
        "cas_number": "7440-17-7",
        "color": NaN,
        "covalent_radius": "220\u00b19 pm",
        "critical_point": "2093 K, 16 MPa (extrapolated)",
        "crystal_structure": "body-centered cubic (bcc)",
        "curie_point": NaN,
        "density_at_stp": NaN,
        "density_near_rt": "1.532 g/cm3",
        "density_when_liquid_at_mp": NaN,
        "discovery": "Robert Bunsen and Gustav Kirchhoff (1861)",
        "discovery_and_first_isolation": NaN,
        "electrical_resistivity": "128 n?\u00b7m (at 20 \u00b0C)",
        "electron_configuration": "[Kr] 5s1",
        "electronegativity": "Pauling scale: 0.82",
        "element_category": "alkali metal",
        "first_isolation": "George de Hevesy",
        "group_block": "group 1 (alkali metals), s-block",
        "heat_of_fusion": "2.19 kJ/mol",
        "heat_of_vaporisation": NaN,
        "heat_of_vaporization": "69 kJ/mol",
        "ionisation_energies": NaN,
        "ionization_energies": "1st: 403 kJ/mol, 2nd: 2632.1 kJ/mol, 3rd: 3859.4 kJ/mol",
        "iso": "iso\nNA\nhalf-life\nDM\nDE (MeV)\nDP\n\n\n83Rb\nsyn\n86.2 d\n?\n\u2013\n83Kr\n\n\n?\n0.52, 0.53,\n0.55\n\u2013\n\n\n84Rb\nsyn\n32.9 d\n?\n\u2013\n84Kr\n\n\n?+\n1.66, 0.78\n84Kr\n\n\n?\n0.881\n\u2013\n\n\n??\n0.892\n84Sr\n\n\n85Rb\n72.17%\n85Rb is stable with 48 neutrons\n\n\n86Rb\nsyn\n18.65 d\n??\n1.775\n86Sr\n\n\n?\n1.0767\n\u2013\n\n\n87Rb\n27.83%\n4.9\u00d71010 y\n??\n0.283\n87Sr",
        "magnetic_ordering": "paramagnetic",
        "melting_point": "312.45 K (39.30 \u00b0C, 102.74 \u00b0F)",
        "mohs_hardness": "0.3",
        "molar_heat_capacity": "31.060 J/(mol\u00b7K)",
        "molar_volume": NaN,
        "name": "Rubidium",
        "named_by": NaN,
        "naming": NaN,
        "oxidation_states": "+1, ?1 (a strongly basic oxide)",
        "p_(pa)": "vapor pressure, P (Pa), 1, 10, 100, 1 k, 10 k, 100 k, at T (K), 434, 486, 552, 641, 769, 958",
        "per_shell": "2, 8, 18, 8, 1",
        "period": 5,
        "phase": "solid",
        "poisson_ratio": NaN,
        "prediction": NaN,
        "pronunciation": "/r??b?di?m/, roo-BID-ee-?m",
        "proposed_formal_name": NaN,
        "recognised_as_an_element_by": NaN,
        "recognized_as_a_distinct_element_by": NaN,
        "recognized_as_a_unique_metal_by": NaN,
        "recognized_as_an_element_by": NaN,
        "shear_modulus": NaN,
        "speed_of_sound": NaN,
        "speed_of_sound_thin_rod": "1300 m/s (at 20 \u00b0C)",
        "sublimation_point": NaN,
        "symbol": "Rb",
        "tensile_strength": NaN,
        "thermal_conductivity": "58.2 W/(m\u00b7K)",
        "thermal_diffusivity": NaN,
        "thermal_expansion": "90 \u00b5m/(m\u00b7K) (at r.t.)",
        "triple_point": "312.41 K, ? kPa",
        "van_der_waals_radius": "303 pm",
        "vickers_hardness": NaN,
        "when_liquid_at_bp": NaN,
        "when_liquid_at_mp": "1.46 g/cm3",
        "youngs_modulus": "2.4 GPa"
    }
}