{
    "thulium_Tm": {
        "allotropes": NaN,
        "alternative_name": NaN,
        "alternative_names": NaN,
        "appearance": "silvery gray",
        "at_t_(k)": 1117.0,
        "atomic_number": 69,
        "atomic_radius": "empirical: 176 pm",
        "atomic_weight": "168.93422(2)",
        "band_gap": NaN,
        "boiling_point": "2223 K (1950 \u00b0C, 3542 \u00b0F)",
        "brinell_hardness": "470\u2013900 MPa",
        "bulk_modulus": "44.5 GPa",
        "cas_number": "7440-30-4",
        "color": NaN,
        "covalent_radius": "190\u00b110 pm",
        "critical_point": NaN,
        "crystal_structure": "hexagonal close-packed (hcp)",
        "curie_point": NaN,
        "density_at_stp": NaN,
        "density_near_rt": "9.32 g/cm3",
        "density_when_liquid_at_mp": NaN,
        "discovery": NaN,
        "discovery_and_first_isolation": "Per Teodor Cleve (1879)",
        "electrical_resistivity": "poly: 676 n?\u00b7m (at r.t.)",
        "electron_configuration": "[Xe] 4f13 6s2",
        "electronegativity": "Pauling scale: 1.25",
        "element_category": "lanthanide",
        "first_isolation": NaN,
        "group_block": "group n/a, f-block",
        "heat_of_fusion": "16.84 kJ/mol",
        "heat_of_vaporisation": NaN,
        "heat_of_vaporization": "191 kJ/mol",
        "ionisation_energies": NaN,
        "ionization_energies": "1st: 596.7 kJ/mol, 2nd: 1160 kJ/mol, 3rd: 2285 kJ/mol",
        "iso": "iso, NA, half-life, DM, DE (MeV), DP, 167Tm, syn, 9.25 d, ?, 0.748, 167Er, 168Tm, syn, 93.1 d, ?, 1.679, 168Er, 169Tm, 100%, 169Tm is stable with 100 neutrons, 170Tm, syn, 128.6 d, ??, 0.968, 170Yb, 171Tm, syn, 1.92 y, ??, 0.096, 171Yb",
        "magnetic_ordering": "paramagnetic (at 300 K)",
        "melting_point": "1818 K (1545 \u00b0C, 2813 \u00b0F)",
        "mohs_hardness": NaN,
        "molar_heat_capacity": "27.03 J/(mol\u00b7K)",
        "molar_volume": NaN,
        "name": "Thulium",
        "named_by": NaN,
        "naming": "after Thule, a mythical region in Scandinavia",
        "oxidation_states": "2, 3 (a basic oxide)",
        "p_(pa)": "vapor pressure, P (Pa), 1, 10, 100, 1 k, 10 k, 100 k, at T (K), 1117, 1235, 1381, 1570, (1821), (2217)",
        "per_shell": "2, 8, 18, 31, 8, 2",
        "period": 6,
        "phase": "solid",
        "poisson_ratio": "0.213",
        "prediction": NaN,
        "pronunciation": "/??ju?li?m/ or /??u?li?m/, THEW-lee-?m or THOO-lee-?m",
        "proposed_formal_name": NaN,
        "recognised_as_an_element_by": NaN,
        "recognized_as_a_distinct_element_by": NaN,
        "recognized_as_a_unique_metal_by": NaN,
        "recognized_as_an_element_by": NaN,
        "shear_modulus": "30.5 GPa",
        "speed_of_sound": NaN,
        "speed_of_sound_thin_rod": NaN,
        "sublimation_point": NaN,
        "symbol": "Tm",
        "tensile_strength": NaN,
        "thermal_conductivity": "16.9 W/(m\u00b7K)",
        "thermal_diffusivity": NaN,
        "thermal_expansion": "poly: 13.3 \u00b5m/(m\u00b7K) (at r.t.)",
        "triple_point": NaN,
        "van_der_waals_radius": NaN,
        "vickers_hardness": "470\u2013650 MPa",
        "when_liquid_at_bp": NaN,
        "when_liquid_at_mp": "8.56 g/cm3",
        "youngs_modulus": "74.0 GPa"
    }
}