var element_data = {
    "wiki": "https://en.wikipedia.org/wiki/Thulium",
    "video": "https://www.youtube.com/watch?v=CQFDIZfMPVQ&list=PL7A1F4CF36C085DE1&index=69",
    "image": "Thulium/thulium.jpg",
    "species": "LANTHANOIDS",
    "symbol": "Tm",
    "latin_name": "Thulium",
    "english_name": "Thulium",
    "year_discovered": "1879",
    "discovered_by": "----",
    "Electron_shell": [
        {
            "K": 2
        },
        {
            "L": 8
        },
        {
            "M": 18
        },
        {
            "N": 31
        },
        {
            "O": 8
        },
        {
            "P": 2
        },
        {
            "Q": 0
        },
        {
            "R": 0
        }
    ],
    "epn_no": [
        {
            "electrons": 69,
        },
        {
            "protons": 69,
        },
        {
            "neutrons": 100
        }
    ],
    "atomic_number": 69,
    "atomic_weight": "168.934 (g/mol)",
    "density": "9.32 (g/cm³)",
    "melting_point": "1545 °C = 2813.00 °F = 1818.15 K",
    "boiling_point": "1947 °C = 3536.60 °F = 2220.15 K",
    "valence_electrons": "3",
    "period": 6,
    "group": "----",
    "block": "f-block",
    "emission_spectrum": "Thulium/Tm.gif",
    "phase": "Solid",
    "phase_icon": "----",
    "fusion_heat": "16.8 (kJ &middot K)",
    "specific_heat": "160 J/(kg &middot; K)",
    "thermal_expansion": "13.3 &middot; 10<sup>-6</sup>°C<sup>-1</sup>)",
    "vaporization_heat": "250 kJ &middot; mol",
    "electron_configuration": "[Xe] 6s<sup>2</sup> 4f<sup>13</sup>",
    "oxidation_state": "+2, +3",
    "ion_charge": "Tm<sup>3+</sup>",
    "ionization_potential": "---- eV",
    "atomic_radius": "177 (pm)",
    "covalent_radius": "---- (pm)",
    "van_der_waals_radius": "---- (pm)",
    "electrical_conductivity": "1.4 &middot; 10<sup>6</sup>",
    "electrical_type": "Conductor", 
    "magnetic_type": "Paramagnetic",
    "volume_susceptibility": "0.0185488",
    "mass_susceptibility": "0.00000199",
    "molar_susceptibility": "3.36179 &middot; 10<sup>-7</sup> m<sup>3</sup>/mol",
    "resistivity": "7 &middot; 10<sup>-7</sup> m\u03A9",
    "superconducting_point": "----",
    "lattice_structure": "Thulium/Hexagonal_close_packed.svg.png",
    "crystal_structure": "Hexagonal close-packed",
    "grid": "a=3.540 \u212B; c=5.56 \u212B",
    "attitude": "1.570",
    "debye_temperature": "----",
    "space_group_name": "----",
    "space_group_number": "194",
    "CAS_number": "CAS7440-30-4",
    "CID_number": "CID23961",
    "RTEC_number": "----",
    "brinell_hardness": "470-900 MPa",
    "mohs_hardness": "----",
    "vickers_hardness": "470-650 MPa",
    "bulk_modulus": "44.5 GPa",
    "Young_modulus": "74.0 GPa",
    "liquid_density": "8.56 (g/cm<sup>3</sup>)",
    "molar_volume": "18.1 (cm<sup>3</sup>/mol)",
    "poisson_ratio": "0.21 &micro;",
    "shear_modulus": "31 GPa",
    "sound_speed": "---- m/s",
    "refractive_index": "----",
    "thermal_conductivity": "17 W/mK",
    "electronegative": "Pauling Scale 1.25",
    "electron_affinity": "50 KJ/mol",
    "radioactivity": "no",
    "half_life": "\u221E",
    "life_time": "\u221E",
    "barn": "105 b",
    "hazard_block": [
        {
            "red": "-"
        },
        {
            "yellow": "-"
        },
        {
            "blue": "-"
        },
        {
            "white": "-"
        }
    ],
    "fire_hazard": "----",
    "health_hazard":"----",
    "reactivity": "----",
    "specific": "----",
    "universe_contains": "---- %",
    "sun_contains": "2 &middot; 10<sup>-8</sup> %",
    "oceans_contains": "2 &middot; 10<sup>-11</sup> %",
    "human_body_contains": "---- %",
    "earth_crust_contains": "0.000045 %",
    "meteorites_contains": "2.9 &middot; 10<sup>-6</sup> %",
    "start_isotope_number": 145,
    "stop_isotope_number": 163,
    "half_life_number": ["3.1 &micro;s", "240 ms", "580 ms", "700 ms", "900 ms", "3 s", "4.17 s", "8.0 s", "294 ns", "8.1 s", "21.6 s", "83.6 s", "3.63 m", "9.13 m", "9.4 m", "30.2 m", "21.70 m", "1.810 hours"],
    "iso_weight": [144.97007, 145.93343, 146.96096, 147.96096, 148.95272, 149.94996, 150.94548, 151.94442, 152.94201, 153.94156, 154.93919, 155.93898, 156.93697, 157.93698, 158.93498, 159.93526, 160.93355, 161.93399, 162.93265]
}