{
    "hassium_Hs": {
        "allotropes": NaN,
        "alternative_name": NaN,
        "alternative_names": NaN,
        "appearance": "silvery (predicted)",
        "at_t_(k)": NaN,
        "atomic_number": 108,
        "atomic_radius": "empirical: 126 pm (estimated)",
        "atomic_weight": "[269]",
        "band_gap": NaN,
        "boiling_point": NaN,
        "brinell_hardness": NaN,
        "bulk_modulus": NaN,
        "cas_number": "54037-57-9",
        "color": NaN,
        "covalent_radius": "134 pm (estimated)",
        "critical_point": NaN,
        "crystal_structure": "hexagonal close-packed (hcp), (predicted)",
        "curie_point": NaN,
        "density_at_stp": NaN,
        "density_near_rt": "41 g/cm3 (predicted)",
        "density_when_liquid_at_mp": NaN,
        "discovery": "Gesellschaft f\u00fcr Schwerionenforschung (1984)",
        "discovery_and_first_isolation": NaN,
        "electrical_resistivity": NaN,
        "electron_configuration": "[Rn] 5f14 6d6 7s2 ",
        "electronegativity": NaN,
        "element_category": "transition metal",
        "first_isolation": NaN,
        "group_block": "group 8, d-block",
        "heat_of_fusion": NaN,
        "heat_of_vaporisation": NaN,
        "heat_of_vaporization": NaN,
        "ionisation_energies": NaN,
        "ionization_energies": "1st: 733.3 kJ/mol, 2nd: 1756.0 kJ/mol, 3rd: 2827.0 kJ/mol, (more) (all but first estimated)",
        "iso": "iso\nNA\nhalf-life\nDM\nDE (MeV)\nDP\n\n\n277Hs\nsyn\n2 s\nSF\n\n\n\n\n277mHs ?\nsyn\n~130 s?\nSF\n\n\n\n\n271Hs\nsyn\n~4 s\n?\n9.27, 9.13\n267Sg\n\n\n270Hs\nsyn\n3.6 s\n?\n9.02, 8.88\n266Sg\n\n\n269Hs\nsyn\n9.7 s\n?\n9.21, 9.10, 8.97\n265Sg",
        "magnetic_ordering": NaN,
        "melting_point": NaN,
        "mohs_hardness": NaN,
        "molar_heat_capacity": NaN,
        "molar_volume": NaN,
        "name": "Hassium",
        "named_by": NaN,
        "naming": "after Hassia, Latin for Hesse, Germany, where it was discovered",
        "oxidation_states": "8, (6), (5), (4), (3), (2) (parenthesized oxidation states are predictions)",
        "p_(pa)": NaN,
        "per_shell": "2, 8, 18, 32, 32, 14, 2",
        "period": 7,
        "phase": "solid (predicted)",
        "poisson_ratio": NaN,
        "prediction": NaN,
        "pronunciation": "i/?h\u00e6si?m/, HASS-ee-?m",
        "proposed_formal_name": NaN,
        "recognised_as_an_element_by": NaN,
        "recognized_as_a_distinct_element_by": NaN,
        "recognized_as_a_unique_metal_by": NaN,
        "recognized_as_an_element_by": NaN,
        "shear_modulus": NaN,
        "speed_of_sound": NaN,
        "speed_of_sound_thin_rod": NaN,
        "sublimation_point": NaN,
        "symbol": "Hs",
        "tensile_strength": NaN,
        "thermal_conductivity": NaN,
        "thermal_diffusivity": NaN,
        "thermal_expansion": NaN,
        "triple_point": NaN,
        "van_der_waals_radius": NaN,
        "vickers_hardness": NaN,
        "when_liquid_at_bp": NaN,
        "when_liquid_at_mp": NaN,
        "youngs_modulus": NaN
    }
}