{
    "tellurium_Te": {
        "allotropes": NaN,
        "alternative_name": NaN,
        "alternative_names": NaN,
        "appearance": "silvery lustrous gray (crystalline),, brown-black powder (amorphous)",
        "at_t_(k)": NaN,
        "atomic_number": 52,
        "atomic_radius": "empirical: 140 pm",
        "atomic_weight": "127.60(3)",
        "band_gap": NaN,
        "boiling_point": "1261 K (988 \u00b0C, 1810 \u00b0F)",
        "brinell_hardness": "180\u2013270 MPa",
        "bulk_modulus": "65 GPa",
        "cas_number": "13494-80-9",
        "color": NaN,
        "covalent_radius": "138\u00b14 pm",
        "critical_point": NaN,
        "crystal_structure": "hexagonal",
        "curie_point": NaN,
        "density_at_stp": NaN,
        "density_near_rt": "6.24 g/cm3",
        "density_when_liquid_at_mp": NaN,
        "discovery": "Franz-Joseph M\u00fcller von Reichenstein (1782)",
        "discovery_and_first_isolation": NaN,
        "electrical_resistivity": NaN,
        "electron_configuration": "[Kr] 4d10 5s2 5p4",
        "electronegativity": "Pauling scale: 2.1",
        "element_category": "metalloid",
        "first_isolation": "Martin Heinrich Klaproth",
        "group_block": "group 16 (chalcogens), p-block",
        "heat_of_fusion": "17.49 kJ/mol",
        "heat_of_vaporisation": NaN,
        "heat_of_vaporization": "114.1 kJ/mol",
        "ionisation_energies": NaN,
        "ionization_energies": "1st: 869.3 kJ/mol, 2nd: 1790 kJ/mol, 3rd: 2698 kJ/mol",
        "iso": "iso, NA, half-life, DM, DE (MeV), DP, 120Te, 0.09%, 120Te is stable with 68 neutrons, 121Te, syn, 16.78 d, ?, 1.040, 121Sb, 122Te, 2.55%, 122Te is stable with 70 neutrons, 123Te, 0.89%, 123Te is stable with 71 neutrons, 124Te, 4.74%, 124Te is stable with 72 neutrons, 125Te, 7.07%, 125Te is stable with 73 neutrons, 126Te, 18.84%, 126Te is stable with 74 neutrons, 127Te, syn, 9.35 h, ??, 0.698, 127I, 128Te, 31.74%, 2.2\u00d71024 y, ????, 0.867, 128Xe, 129Te, syn, 69.6 min, ??, 1.498, 129I, 130Te, 34.08%, 7.9\u00d71020 y, ????, 2.528, 130Xe",
        "magnetic_ordering": "diamagnetic",
        "melting_point": "722.66 K (449.51 \u00b0C, 841.12 \u00b0F)",
        "mohs_hardness": "2.25",
        "molar_heat_capacity": "25.73 J/(mol\u00b7K)",
        "molar_volume": NaN,
        "name": "Tellurium",
        "named_by": NaN,
        "naming": "after Roman Tellus, deity of the Earth",
        "oxidation_states": "6, 5, 4, 3, 2, 1, ?1, ?2 (a mildly acidic oxide)",
        "p_(pa)": "vapor pressure, P (Pa), 1, 10, 100, 1 k, 10 k, 100 k, at T (K), (775), (888), 1042, 1266",
        "per_shell": "2, 8, 18, 18, 6",
        "period": 5,
        "phase": "solid",
        "poisson_ratio": NaN,
        "prediction": NaN,
        "pronunciation": "/t??l???ri?m/, te-LEWR-ee-?m",
        "proposed_formal_name": NaN,
        "recognised_as_an_element_by": NaN,
        "recognized_as_a_distinct_element_by": NaN,
        "recognized_as_a_unique_metal_by": NaN,
        "recognized_as_an_element_by": NaN,
        "shear_modulus": "16 GPa",
        "speed_of_sound": NaN,
        "speed_of_sound_thin_rod": "2610 m/s (at 20 \u00b0C)",
        "sublimation_point": NaN,
        "symbol": "Te",
        "tensile_strength": NaN,
        "thermal_conductivity": "1.97\u20133.38 W/(m\u00b7K)",
        "thermal_diffusivity": NaN,
        "thermal_expansion": "18 \u00b5m/(m\u00b7K) (at r.t.)",
        "triple_point": NaN,
        "van_der_waals_radius": "206 pm",
        "vickers_hardness": NaN,
        "when_liquid_at_bp": NaN,
        "when_liquid_at_mp": "5.70 g/cm3",
        "youngs_modulus": "43 GPa"
    }
}