var element_data = {
    "wiki": "https://en.wikipedia.org/wiki/Zirconium",
    "video": "https://www.youtube.com/watch?v=gNJE2MPktvg&list=PL7A1F4CF36C085DE1&index=40",
    "image": "Zirconium/zirconium.jpg",
    "species": "TRANSITION METALS",
    "symbol": "Zr",
    "latin_name": "Zirconium",
    "english_name": "Zirconium",
    "year_discovered": "1789",
    "discovered_by": "Martin Heinrich Klaproth",
    "Electron_shell": [
        {
            "K": 2
        },
        {
            "L": 8
        },
        {
            "M": 18
        },
        {
            "N": 10
        },
        {
            "O": 2
        },
        {
            "P": 0
        },
        {
            "Q": 0
        },
        {
            "R": 0
        }
    ],
    "epn_no": [
        {
            "electrons": 40,
        },
        {
            "protons": 40,
        },
        {
            "neutrons": 51
        }
    ],
    "atomic_number": 40,
    "atomic_weight": "91.224 (g/mol)",
    "density": "6.51 (g/cm³)",
    "melting_point": "1855 °C = 3371.00 °F = 2128.15 K",
    "boiling_point": "4409 °C = 7968.20 °F = 4682.15 K",
    "valence_electrons": 4,
    "period": 5,
    "group": "IV B",
    "block": "d-block",
    "emission_spectrum": "Zirconium/Zr.gif",
    "phase": "Solid",
    "phase_icon": "----",
    "fusion_heat": "21 (kJ &middot K)",
    "specific_heat": "278 J/(kg &middot; K)",
    "thermal_expansion": "5.7 &middot; 10<sup>-6</sup>°C<sup>-1</sup>)",
    "vaporization_heat": "580 kJ &middot; mol",
    "electron_configuration": "[Kr] 5s<sup>2</sup> 4d<sup>2</sup>",
    "oxidation_state": "-2, +1, +2, +3, +4",
    "ion_charge": "Zr<sup>4+</sup>",
    "ionization_potential": "6 eV",
    "atomic_radius": "160 (pm)",
    "covalent_radius": "148 (pm)",
    "van_der_waals_radius": "---- (pm)",
    "electrical_conductivity": "2.4 &middot; 10<sup>6</sup>",
    "electrical_type": "Conductor", 
    "magnetic_type": "Paramagnetic",
    "volume_susceptibility": "0.0001081",
    "mass_susceptibility": "0.0000000166",
    "molar_susceptibility": "1.53 &middot; 10<sup>-9</sup> m<sup>3</sup>/mol",
    "resistivity": "4.2 &middot; 10<sup>-7</sup> m\u03A9",
    "superconducting_point": "-272.54 °C = -458.57 °F = 0.61 K",
    "lattice_structure": "Zirconium/Hexagonal_close_packed.svg.png",
    "crystal_structure": "Hexagonal close-packed",
    "grid": "a=3.231 \u212B; c=5.148 \u212B",
    "attitude": "1.593",
    "debye_temperature": "17.85 °C = 64.13 °F = 291 K",
    "space_group_name": "----",
    "space_group_number": "194",
    "CAS_number": "CAS7440-67-7",
    "CID_number": "CID23995",
    "RTEC_number": "----",
    "brinell_hardness": "638-1880 MPa",
    "mohs_hardness": "5",
    "vickers_hardness": "820-1800 MPa",
    "bulk_modulus": "91.1 GPa",
    "Young_modulus": "88 GPa",
    "liquid_density": "---- (g/cm<sup>3</sup>)",
    "molar_volume": "14.1 (cm<sup>3</sup>/mol)",
    "poisson_ratio": "0.34 &micro;",
    "shear_modulus": "33 GPa",
    "sound_speed": "3800 m/s",
    "refractive_index": "----",
    "thermal_conductivity": "41.1 W/mK",
    "electronegative": "Pauling Scale 1.33",
    "electron_affinity": "41.1 KJ/mol",
    "radioactivity": "no",
    "half_life": "\u221E",
    "life_time": "\u221E",
    "barn": "0.184 b",
    "hazard_block": [
        {
            "red": "1"
        },
        {
            "yellow": "0"
        },
        {
            "blue": "1"
        },
        {
            "white": "-"
        }
    ],
    "fire_hazard": "Above 93.3 °C",
    "health_hazard":"Slightly hazardous",
    "reactivity": "Stable",
    "specific": "----",
    "universe_contains": "5 &middot; 10<sup>-6</sup> %",
    "sun_contains": "4 &middot; 10<sup>-6</sup> %",
    "oceans_contains": "2.6 &middot; 10<sup>-9</sup> %",
    "human_body_contains": "5 &middot; 10<sup>-6</sup> %",
    "earth_crust_contains": "0.013 %",
    "meteorites_contains": "0.00066 %",
    "start_isotope_number": 78,
    "stop_isotope_number": 85,
    "half_life_number": ["50 ms", "56 ms", "4.6 s", "5.5 s", "32 s", "41.6 s", "25.9 m", "7.86 m"],
    "iso_weight": [77.95523, 78.94916, 79.9404, 80.9375, 81.93109, 82.92865, 83.92325, 84.92147]
}