{
    "zirconium_Zr": {
        "allotropes": NaN,
        "alternative_name": NaN,
        "alternative_names": NaN,
        "appearance": "silvery white",
        "at_t_(k)": 2639.0,
        "atomic_number": 40,
        "atomic_radius": "empirical: 160 pm",
        "atomic_weight": "91.224(2)",
        "band_gap": NaN,
        "boiling_point": "4650 K (4377 \u00b0C, 7911 \u00b0F)",
        "brinell_hardness": "638\u20131880 MPa",
        "bulk_modulus": "91.1 GPa",
        "cas_number": "7440-67-7",
        "color": NaN,
        "covalent_radius": "175\u00b17 pm",
        "critical_point": NaN,
        "crystal_structure": "hexagonal close-packed (hcp)",
        "curie_point": NaN,
        "density_at_stp": NaN,
        "density_near_rt": "6.52 g/cm3",
        "density_when_liquid_at_mp": NaN,
        "discovery": "Martin Heinrich Klaproth (1789)",
        "discovery_and_first_isolation": NaN,
        "electrical_resistivity": "421 n?\u00b7m (at 20 \u00b0C)",
        "electron_configuration": "[Kr] 4d2 5s2",
        "electronegativity": "Pauling scale: 1.33",
        "element_category": "transition metal",
        "first_isolation": "J\u00f6ns Jakob Berzelius (1824)",
        "group_block": "group 4, d-block",
        "heat_of_fusion": "14 kJ/mol",
        "heat_of_vaporisation": NaN,
        "heat_of_vaporization": "591 kJ/mol",
        "ionisation_energies": NaN,
        "ionization_energies": "1st: 640.1 kJ/mol, 2nd: 1270 kJ/mol, 3rd: 2218 kJ/mol",
        "iso": "iso, NA, half-life, DM, DE (MeV), DP, 88Zr, syn, 83.4 d, ?, \u2013, 88Y, ?, 0.392D, \u2013, 89Zr, syn, 78.4 h, ?, \u2013, 89Y, ?+, 0.902, 89Y, ?, 0.909D, \u2013, 90Zr, 51.45%, 90Zr is stable with 50 neutrons, 91Zr, 11.22%, 91Zr is stable with 51 neutrons, 92Zr, 17.15%, 92Zr is stable with 52 neutrons, 93Zr, trace, 1.53\u00d7106 y, ??, 0.060, 93Nb, 94Zr, 17.38%, 94Zr is stable with 54 neutrons, 96Zr, 2.80%, 2.0\u00d71019 y, ????, 3.348, 96Mo",
        "magnetic_ordering": "paramagnetic",
        "melting_point": "2128 K (1855 \u00b0C, 3371 \u00b0F)",
        "mohs_hardness": "5",
        "molar_heat_capacity": "25.36 J/(mol\u00b7K)",
        "molar_volume": NaN,
        "name": "Zirconium",
        "named_by": NaN,
        "naming": "after zircon, zargun ????? meaning \"gold-colored\".",
        "oxidation_states": "4, 3, 2, 1, ?2 (an amphoteric oxide)",
        "p_(pa)": "vapor pressure, P (Pa), 1, 10, 100, 1 k, 10 k, 100 k, at T (K), 2639, 2891, 3197, 3575, 4053, 4678",
        "per_shell": "2, 8, 18, 10, 2",
        "period": 5,
        "phase": "solid",
        "poisson_ratio": "0.34",
        "prediction": NaN,
        "pronunciation": "/z?r?ko?ni?m/, z?r-KOH-ni-?m",
        "proposed_formal_name": NaN,
        "recognised_as_an_element_by": NaN,
        "recognized_as_a_distinct_element_by": NaN,
        "recognized_as_a_unique_metal_by": NaN,
        "recognized_as_an_element_by": NaN,
        "shear_modulus": "33 GPa",
        "speed_of_sound": NaN,
        "speed_of_sound_thin_rod": "3800 m/s (at 20 \u00b0C)",
        "sublimation_point": NaN,
        "symbol": "Zr",
        "tensile_strength": NaN,
        "thermal_conductivity": "22.6 W/(m\u00b7K)",
        "thermal_diffusivity": NaN,
        "thermal_expansion": "5.7 \u00b5m/(m\u00b7K) (at 25 \u00b0C)",
        "triple_point": NaN,
        "van_der_waals_radius": NaN,
        "vickers_hardness": "820\u20131800 MPa",
        "when_liquid_at_bp": NaN,
        "when_liquid_at_mp": "5.8 g/cm3",
        "youngs_modulus": "88 GPa"
    }
}