{
    "titanium_Ti": {
        "allotropes": NaN,
        "alternative_name": NaN,
        "alternative_names": NaN,
        "appearance": "silvery grey-white metallic",
        "at_t_(k)": 1982.0,
        "atomic_number": 22,
        "atomic_radius": "empirical: 147 pm",
        "atomic_weight": "47.867(1)",
        "band_gap": NaN,
        "boiling_point": "3560 K (3287 \u00b0C, 5949 \u00b0F)",
        "brinell_hardness": "716\u20132770 MPa",
        "bulk_modulus": "110 GPa",
        "cas_number": "7440-32-6",
        "color": NaN,
        "covalent_radius": "160\u00b18 pm",
        "critical_point": NaN,
        "crystal_structure": "hexagonal close-packed (hcp)",
        "curie_point": NaN,
        "density_at_stp": NaN,
        "density_near_rt": "4.506 g/cm3",
        "density_when_liquid_at_mp": NaN,
        "discovery": "William Gregor (1791)",
        "discovery_and_first_isolation": NaN,
        "electrical_resistivity": "420 n?\u00b7m (at 20 \u00b0C)",
        "electron_configuration": "[Ar] 3d2 4s2",
        "electronegativity": "Pauling scale: 1.54",
        "element_category": "transition metal",
        "first_isolation": "J\u00f6ns Jakob Berzelius (1825)",
        "group_block": "group 4, d-block",
        "heat_of_fusion": "14.15 kJ/mol",
        "heat_of_vaporisation": NaN,
        "heat_of_vaporization": "425 kJ/mol",
        "ionisation_energies": NaN,
        "ionization_energies": "1st: 658.8 kJ/mol, 2nd: 1309.8 kJ/mol, 3rd: 2652.5 kJ/mol, (more)",
        "iso": "iso\nNA\nhalf-life\nDM\nDE (MeV)\nDP\n\n\n44Ti\nsyn\n63 y\n?\n\u2013\n44Sc\n\n\n?\n0.07D, 0.08D\n\u2013\n\n\n46Ti\n8.25%\n46Ti is stable with 24 neutrons\n\n\n47Ti\n7.44%\n47Ti is stable with 25 neutrons\n\n\n48Ti\n73.72%\n48Ti is stable with 26 neutrons\n\n\n49Ti\n5.41%\n49Ti is stable with 27 neutrons\n\n\n50Ti\n5.18%\n50Ti is stable with 28 neutrons",
        "magnetic_ordering": "paramagnetic",
        "melting_point": "1941 K (1668 \u00b0C, 3034 \u00b0F)",
        "mohs_hardness": "6",
        "molar_heat_capacity": "25.060 J/(mol\u00b7K)",
        "molar_volume": NaN,
        "name": "Titanium",
        "named_by": "Martin Heinrich Klaproth (1795)",
        "naming": NaN,
        "oxidation_states": "4, 3, 2, 1, ?1, ?2 (an amphoteric oxide)",
        "p_(pa)": "vapor pressure, P (Pa), 1, 10, 100, 1 k, 10 k, 100 k, at T (K), 1982, 2171, (2403), 2692, 3064, 3558",
        "per_shell": "2, 8, 10, 2",
        "period": 4,
        "phase": "solid",
        "poisson_ratio": "0.32",
        "prediction": NaN,
        "pronunciation": "/ta??te?ni?m/, ty-TAY-nee-?m",
        "proposed_formal_name": NaN,
        "recognised_as_an_element_by": NaN,
        "recognized_as_a_distinct_element_by": NaN,
        "recognized_as_a_unique_metal_by": NaN,
        "recognized_as_an_element_by": NaN,
        "shear_modulus": "44 GPa",
        "speed_of_sound": NaN,
        "speed_of_sound_thin_rod": "5090 m/s (at r.t.)",
        "sublimation_point": NaN,
        "symbol": "Ti",
        "tensile_strength": NaN,
        "thermal_conductivity": "21.9 W/(m\u00b7K)",
        "thermal_diffusivity": NaN,
        "thermal_expansion": "8.6 \u00b5m/(m\u00b7K) (at 25 \u00b0C)",
        "triple_point": NaN,
        "van_der_waals_radius": NaN,
        "vickers_hardness": "830\u20133420 MPa",
        "when_liquid_at_bp": NaN,
        "when_liquid_at_mp": "4.11 g/cm3",
        "youngs_modulus": "116 GPa"
    }
}