var element_data = {
    "wiki": "https://en.wikipedia.org/wiki/Lawrencium",
    "video": "https://www.youtube.com/watch?v=_zBsnnJOkyA&list=PL7A1F4CF36C085DE1&index=103",
    "image": "Lawrencium/lawrencium.jpg",
    "species": "ACTINOIDS",
    "symbol": "Lr",
    "latin_name": "Lawrencium",
    "english_name": "Lawrencium",
    "year_discovered": "1961",
    "discovered_by": "Albert Ghiorso",
    "Electron_shell": [
        {
            "K": 2
        },
        {
            "L": 8
        },
        {
            "M": 18
        },
        {
            "N": 32
        },
        {
            "O": 32
        },
        {
            "P": 8
        },
        {
            "Q": 3
        },
        {
            "R": 0
        }
    ],
    "epn_no": [
        {
            "electrons": 103,
        },
        {
            "protons": 103,
        },
        {
            "neutrons": 163
        }
    ],
    "atomic_number": 103,
    "atomic_weight": "266.1193 (g/mol)",
    "density": "---- (g/cm³)",
    "melting_point": "1625 °C = 2957.00 °F = 1898.15 K",
    "boiling_point": "----",
    "valence_electrons": "3",
    "period": 7,
    "group": "----",
    "block": "d-block",
    "emission_spectrum": "Lawrencium/Lr.gif",
    "phase": "----",
    "phase_icon": "----",
    "fusion_heat": "---- (kJ &middot K)",
    "specific_heat": "---- J/(kg &middot; K)",
    "thermal_expansion": "---- °C<sup>-1</sup>)",
    "vaporization_heat": "---- kJ &middot; mol",
    "electron_configuration": "[Rn] 7s<sup>2</sup>5f<sup>14</sup>7p<sup>1</sup>",
    "oxidation_state": "+3",
    "ion_charge": "Lr<sup>3+</sup>",
    "ionization_potential": "----",
    "atomic_radius": "282 (pm)",
    "covalent_radius": "---- (pm)",
    "van_der_waals_radius": "---- (pm)",
    "electrical_conductivity": "----",
    "electrical_type": "----", 
    "magnetic_type": "----",
    "volume_susceptibility": "----",
    "mass_susceptibility": "----",
    "molar_susceptibility": "---- m<sup>3</sup>/mol",
    "resistivity": "---- m\u03A9",
    "superconducting_point": "----",
    "lattice_structure": "Lawrencium/Hexagonal_close_packed.svg.png",
    "crystal_structure": "Hexagonal close-packed",
    "grid": "----",
    "attitude": "----",
    "debye_temperature": "----",
    "space_group_name": "----",
    "space_group_number": "----",
    "CAS_number": "CAS22537-19-5",
    "CID_number": "----",
    "RTEC_number": "----",
    "brinell_hardness": "---- MPa",
    "mohs_hardness": "----",
    "vickers_hardness": "----",
    "bulk_modulus": "---- GPa",
    "Young_modulus": "---- GPa",
    "liquid_density": "---- (g/cm<sup>3</sup>)",
    "molar_volume": "---- (cm<sup>3</sup>/mol)",
    "poisson_ratio": "----",
    "shear_modulus": "---- GPa",
    "sound_speed": "---- m/s",
    "refractive_index": "----",
    "thermal_conductivity": "----W/mK",
    "electronegative": "Pauling Scale ----",
    "electron_affinity": "---- KJ/mol",
    "radioactivity": "yes",
    "half_life": "10 hours",
    "life_time": "14.4 hours",
    "barn": "0 b",
    "hazard_block": [
        {
            "red": "-"
        },
        {
            "yellow": "-"
        },
        {
            "blue": "-"
        },
        {
            "white": "-"
        }
    ],
    "fire_hazard": "----",
    "health_hazard":"----",
    "reactivity": "----",
    "specific": "----",
    "universe_contains": "---- %",
    "sun_contains": "---- %",
    "oceans_contains": "---- %",
    "human_body_contains": "---- %",
    "earth_crust_contains": "---- %",
    "meteorites_contains": "---- %",
    "start_isotope_number": 251,
    "stop_isotope_number": 259,
    "half_life_number": ["150 &micro;s", "390 ms", "580 ms", "13 s", "22 s", "27 s", "646 ms", "4.1 s", "6.2 s"],
    "iso_weight": [251.09436, 252.09537, 253.09521, 254.09645, 255.09668, 256.09668, 256.09863, 257.09956, 258.10181, 259.10290]
}