{
    "lawrencium_Lr": {
        "allotropes": NaN,
        "alternative_name": NaN,
        "alternative_names": NaN,
        "appearance": "silvery (predicted)",
        "at_t_(k)": NaN,
        "atomic_number": 103,
        "atomic_radius": NaN,
        "atomic_weight": "[266]",
        "band_gap": NaN,
        "boiling_point": NaN,
        "brinell_hardness": NaN,
        "bulk_modulus": NaN,
        "cas_number": "22537-19-5",
        "color": NaN,
        "covalent_radius": NaN,
        "critical_point": NaN,
        "crystal_structure": "hexagonal close-packed (hcp), (predicted)",
        "curie_point": NaN,
        "density_at_stp": NaN,
        "density_near_rt": "~15.6\u201316.6 g/cm3 (predicted)",
        "density_when_liquid_at_mp": NaN,
        "discovery": "Lawrence Berkeley National Laboratory and Joint Institute for Nuclear Research (1961\u20131971)",
        "discovery_and_first_isolation": NaN,
        "electrical_resistivity": NaN,
        "electron_configuration": "[Rn] 5f14 7s2 7p1",
        "electronegativity": NaN,
        "element_category": "actinide, sometimes considered a transition metal",
        "first_isolation": NaN,
        "group_block": "group n/a, d-block",
        "heat_of_fusion": NaN,
        "heat_of_vaporisation": NaN,
        "heat_of_vaporization": NaN,
        "ionisation_energies": NaN,
        "ionization_energies": "1st: 478.6 kJ/mol, 2nd: 1428.0 kJ/mol (predicted), 3rd: 2219.1 kJ/mol (predicted)",
        "iso": "iso, NA, half-life, DM, DE (MeV), DP, 266Lr, syn, 11 h, SF, 262Lr, syn, 3.6 h, ?, 262No, 261Lr, syn, 44 min, SF/??, 260Lr, syn, 2.7 min, ?, 8.04, 256Md, 259Lr, syn, 6.2 s, 78% ?, 8.44, 255Md, 22% SF, 256Lr, syn, 27 s, ?, 8.62,8.52,8.32..., 252Md, 255Lr, syn, 21.5 s, ?, 8.43,8.37, 251Md, 254Lr, syn, 13 s, 78% ?, 8.46,8.41, 250Md, 22% ?, 254No",
        "magnetic_ordering": NaN,
        "melting_point": "1900 K (1627 \u00b0C, 2961 \u00b0F) (predicted)",
        "mohs_hardness": NaN,
        "molar_heat_capacity": NaN,
        "molar_volume": NaN,
        "name": "Lawrencium",
        "named_by": NaN,
        "naming": "after Ernest Lawrence",
        "oxidation_states": "3",
        "p_(pa)": NaN,
        "per_shell": "2, 8, 18, 32, 32, 8, 3",
        "period": 7,
        "phase": "solid (predicted)",
        "poisson_ratio": NaN,
        "prediction": NaN,
        "pronunciation": "i/l??r?nsi?m/, l?-REN-see-?m",
        "proposed_formal_name": NaN,
        "recognised_as_an_element_by": NaN,
        "recognized_as_a_distinct_element_by": NaN,
        "recognized_as_a_unique_metal_by": NaN,
        "recognized_as_an_element_by": NaN,
        "shear_modulus": NaN,
        "speed_of_sound": NaN,
        "speed_of_sound_thin_rod": NaN,
        "sublimation_point": NaN,
        "symbol": "Lr",
        "tensile_strength": NaN,
        "thermal_conductivity": NaN,
        "thermal_diffusivity": NaN,
        "thermal_expansion": NaN,
        "triple_point": NaN,
        "van_der_waals_radius": NaN,
        "vickers_hardness": NaN,
        "when_liquid_at_bp": NaN,
        "when_liquid_at_mp": NaN,
        "youngs_modulus": NaN
    }
}