{
    "mendelevium_Md": {
        "allotropes": NaN,
        "alternative_name": NaN,
        "alternative_names": NaN,
        "appearance": NaN,
        "at_t_(k)": NaN,
        "atomic_number": 101,
        "atomic_radius": NaN,
        "atomic_weight": "(258)",
        "band_gap": NaN,
        "boiling_point": NaN,
        "brinell_hardness": NaN,
        "bulk_modulus": NaN,
        "cas_number": "7440-11-1",
        "color": NaN,
        "covalent_radius": NaN,
        "critical_point": NaN,
        "crystal_structure": "face-centered cubic (fcc), (predicted)",
        "curie_point": NaN,
        "density_at_stp": NaN,
        "density_near_rt": "10.3(7) g/cm3 (predicted)",
        "density_when_liquid_at_mp": NaN,
        "discovery": "Lawrence Berkeley National Laboratory (1955)",
        "discovery_and_first_isolation": NaN,
        "electrical_resistivity": NaN,
        "electron_configuration": "[Rn] 5f13 7s2",
        "electronegativity": "Pauling scale: 1.3",
        "element_category": "actinide",
        "first_isolation": NaN,
        "group_block": "group n/a, f-block",
        "heat_of_fusion": NaN,
        "heat_of_vaporisation": NaN,
        "heat_of_vaporization": NaN,
        "ionisation_energies": NaN,
        "ionization_energies": "1st: 635 kJ/mol  (estimated)",
        "iso": "iso, NA, half-life, DM, DE (MeV), DP, 257Md, syn, 5.52 h, ?, 0.406, 257Fm, ?, 7.558, 253Es, SF, \u2013, \u2013, 258Md, syn, 51.5 d, ?, 1.230, 258Fm, 260Md, syn, 31.8 d, SF, \u2013, \u2013, ?, 7.000, 256Es, ?, \u2013, 260Fm, ??, 1.000, 260No",
        "magnetic_ordering": NaN,
        "melting_point": "1100 K (827 \u00b0C, 1521 \u00b0F) (predicted)",
        "mohs_hardness": NaN,
        "molar_heat_capacity": NaN,
        "molar_volume": NaN,
        "name": "Mendelevium",
        "named_by": NaN,
        "naming": "after Dmitri Mendeleev",
        "oxidation_states": "2, 3",
        "p_(pa)": NaN,
        "per_shell": "2, 8, 18, 32, 31, 8, 2",
        "period": 7,
        "phase": "solid (predicted)",
        "poisson_ratio": NaN,
        "prediction": NaN,
        "pronunciation": "/?m?nd??l?vi?m/ or /?m?nd??li?vi?m/",
        "proposed_formal_name": NaN,
        "recognised_as_an_element_by": NaN,
        "recognized_as_a_distinct_element_by": NaN,
        "recognized_as_a_unique_metal_by": NaN,
        "recognized_as_an_element_by": NaN,
        "shear_modulus": NaN,
        "speed_of_sound": NaN,
        "speed_of_sound_thin_rod": NaN,
        "sublimation_point": NaN,
        "symbol": "Md",
        "tensile_strength": NaN,
        "thermal_conductivity": NaN,
        "thermal_diffusivity": NaN,
        "thermal_expansion": NaN,
        "triple_point": NaN,
        "van_der_waals_radius": NaN,
        "vickers_hardness": NaN,
        "when_liquid_at_bp": NaN,
        "when_liquid_at_mp": NaN,
        "youngs_modulus": NaN
    }
}