{
    "dubnium_Db": {
        "allotropes": NaN,
        "alternative_name": NaN,
        "alternative_names": NaN,
        "appearance": NaN,
        "at_t_(k)": NaN,
        "atomic_number": 105,
        "atomic_radius": "empirical: 139 pm (estimated)",
        "atomic_weight": "[268]",
        "band_gap": NaN,
        "boiling_point": NaN,
        "brinell_hardness": NaN,
        "bulk_modulus": NaN,
        "cas_number": "53850-35-4",
        "color": NaN,
        "covalent_radius": "149 pm (estimated)",
        "critical_point": NaN,
        "crystal_structure": "body-centered cubic (bcc) (predicted)",
        "curie_point": NaN,
        "density_at_stp": NaN,
        "density_near_rt": "29.3 g/cm3 (predicted)",
        "density_when_liquid_at_mp": NaN,
        "discovery": "Joint Institute for Nuclear Research (1968)",
        "discovery_and_first_isolation": NaN,
        "electrical_resistivity": NaN,
        "electron_configuration": "[Rn] 5f14 6d3 7s2 ",
        "electronegativity": NaN,
        "element_category": "transition metal",
        "first_isolation": NaN,
        "group_block": "group 5, d-block",
        "heat_of_fusion": NaN,
        "heat_of_vaporisation": NaN,
        "heat_of_vaporization": NaN,
        "ionisation_energies": NaN,
        "ionization_energies": "1st: 656.1 kJ/mol, 2nd: 1546.7 kJ/mol, 3rd: 2378.4 kJ/mol, (more) (all but first estimated)",
        "iso": "iso, NA, half-life, DM, DE (MeV), DP, 262Db, syn, 34 s, 67% ?, 8.66,, 8.45, 258Lr, 33% SF, 263Db, syn, 27 s, 56% SF, 41% ?, 8.36, 259Lr, 3% ?, 263mRf, 266Db, syn, 22 min, SF, ?, 266Rf, 267Db, syn, 1.2 h, SF, 268Db, syn, 29 h, SF, ?, 268Rf, 270Db, syn, 23.15 h, 17% SF, 83% ?, 266Lr",
        "magnetic_ordering": NaN,
        "melting_point": NaN,
        "mohs_hardness": NaN,
        "molar_heat_capacity": NaN,
        "molar_volume": NaN,
        "name": "Dubnium",
        "named_by": NaN,
        "naming": "after the town of Dubna in Russia",
        "oxidation_states": "5, (4), (3) (parenthesized oxidation states are predictions)",
        "p_(pa)": NaN,
        "per_shell": "2, 8, 18, 32, 32, 11, 2",
        "period": 7,
        "phase": "solid (predicted)",
        "poisson_ratio": NaN,
        "prediction": NaN,
        "pronunciation": "i/?du?bni?m/, DOOB-nee-?m",
        "proposed_formal_name": NaN,
        "recognised_as_an_element_by": NaN,
        "recognized_as_a_distinct_element_by": NaN,
        "recognized_as_a_unique_metal_by": NaN,
        "recognized_as_an_element_by": NaN,
        "shear_modulus": NaN,
        "speed_of_sound": NaN,
        "speed_of_sound_thin_rod": NaN,
        "sublimation_point": NaN,
        "symbol": "Db",
        "tensile_strength": NaN,
        "thermal_conductivity": NaN,
        "thermal_diffusivity": NaN,
        "thermal_expansion": NaN,
        "triple_point": NaN,
        "van_der_waals_radius": NaN,
        "vickers_hardness": NaN,
        "when_liquid_at_bp": NaN,
        "when_liquid_at_mp": NaN,
        "youngs_modulus": NaN
    }
}