var element_data = {
    "wiki": "https://en.wikipedia.org/wiki/Carbon",
    "video": "https://www.youtube.com/watch?v=QuW4_bRHbUk&list=PL7A1F4CF36C085DE1&index=6",
    "image": "Carbon/carbon.jpg",
    "species": "OTHER NONMETALS",
    "symbol": "C",
    "latin_name": "Сarbonium (Carboneum)",
    "english_name": "Carbon",
    "year_discovered": "Deep antiquity",
    "discovered_by": "Antoine Laurent de Lavoisier",
    "Electron_shell": [
        {
            "K": 2
        },
        {
            "L": 4
        },
        {
            "M": 0
        },
        {
            "N": 0
        },
        {
            "O": 0
        },
        {
            "P": 0
        },
        {
            "Q": 0
        },
        {
            "R": 0
        }
    ],
    "epn_no": [
        {
            "electrons": 6,
        },
        {
            "protons": 6,
        },
        {
            "neutrons": 6
        }
    ],
    "atomic_number": 6,
    "atomic_weight": "12.0107  (g/mol)",
    "density": "2.26 (g/cm³)",
    "melting_point": "3550 °C = 6422.00 °F = 3823.15 K",
    "boiling_point": "4827 °C = 8720.60 °F = 5100.15 K",
    "valence_electrons": "4",
    "period": 2,
    "group": "IV A",
    "block": "p-block",
    "emission_spectrum": "Carbon/C.gif",
    "phase": "Solid",
    "phase_icon": "----",
    "fusion_heat": "105 (kJ &middot K)",
    "specific_heat": "710 J/(kg &middot; K)",
    "thermal_expansion": "0.8 &middot; 10<sup>-6</sup>°C<sup>-1</sup>)",
    "vaporization_heat": "715 kJ &middot; mol",
    "electron_configuration": "[He] 2s<sup>2</sup>2p<sup>2</sup>",
    "oxidation_state": "-4, -3, -2, -1, +1, +2, +3, +4",
    "ion_charge": "----",
    "ionization_potential": "11.22 eV",
    "atomic_radius": "77 (pm)",
    "covalent_radius": "77 (pm)",
    "van_der_waals_radius": "170 (pm)",
    "electrical_conductivity": "1 &middot; 10<sup>5</sup>",
    "electrical_type": "Conductor", 
    "magnetic_type": "Diamagnetic",
    "volume_susceptibility": "-0.000014",
    "mass_susceptibility": "-0.0000000062",
    "molar_susceptibility": "-7.45 &middot; 10<sup>-11</sup> m<sup>3</sup>/mol",
    "resistivity": "1 &middot; 10<sup>-5</sup> m\u03A9",
    "superconducting_point": "----",
    "lattice_structure": "Carbon/Double-Hexagonal-Close-Packed.png",
    "crystal_structure": "Simple hexagonal",
    "grid": "a=2.46; c=6.71; а=3.567",
    "attitude": "2.73",
    "debye_temperature": "----",
    "space_group_name": "R_3m",
    "space_group_number": "166",
    "CAS_number": "CAS7440-44-0",
    "CID_number": "CID5462310",
    "RTEC_number": "RTECSCSHL4158550",
    "brinell_hardness": "----",
    "mohs_hardness": "1.5",
    "vickers_hardness": "----",
    "bulk_modulus": "442 GPa",
    "Young_modulus": "---- GPa",
    "liquid_density": "---- (g/cm<sup>3</sup>)",
    "molar_volume": "5.3 (cm<sup>3</sup>/mol)",
    "poisson_ratio": "----",
    "shear_modulus": "---- GPa",
    "sound_speed": "18350 m/s",
    "refractive_index": "----",
    "thermal_conductivity": "140 W/mK",
    "electronegative": "Pauling Scale 2.55",
    "electron_affinity": "153.9 KJ/mol",
    "radioactivity": "no",
    "half_life": "\u221E",
    "life_time": "\u221E",
    "barn": "0.0035 b",
    "hazard_block": [
        {
            "red": "1"
        },
        {
            "yellow": "0"
        },
        {
            "blue": "0"
        },
        {
            "white": "-"
        }
    ],
    "fire_hazard": "Above 93.3 °C",
    "health_hazard":"Normal material",
    "reactivity": "Stable",
    "specific": "----",
    "universe_contains": "0.5 %",
    "sun_contains": "0.3 %",
    "oceans_contains": "0.0028 %",
    "human_body_contains": "23 %",
    "earth_crust_contains": "0.18 %",
    "meteorites_contains": "1.5 %",
    "start_isotope_number": 8,
    "stop_isotope_number": 22,
    "half_life_number": ["2 &middot; 10<sup>-21</sup> s", "126.5 &micro;s", "19.290 s", "20.334 m", "--", "--", "5.70 &middot; 10<sup>3</sup> years", "2.449 s", "0.747 s", "193 &micro;s", "92 &micro;s", "46.2 &micro;s", "16 &micro;s", "--", "6.2 &micro;s"],
    "iso_weight": [8.037675, 9.0310367, 10.01685, 11.01143, 12, 13.00335, 14.00335, 14.00324, 15.01059, 16.014701, 17.022586, 18.02676, 19.03481, 20.04032, 21.04934, 22.05720]
}