{
    "carbon_C": {
        "allotropes": "graphite, diamond",
        "alternative_name": NaN,
        "alternative_names": NaN,
        "appearance": "graphite: black, diamond: clear",
        "at_t_(k)": NaN,
        "atomic_number": 6,
        "atomic_radius": NaN,
        "atomic_weight": "12.011 (12.0096\u201312.0116)",
        "band_gap": NaN,
        "boiling_point": NaN,
        "brinell_hardness": NaN,
        "bulk_modulus": "diamond: 442 GPa",
        "cas_number": "7440-44-0",
        "color": NaN,
        "covalent_radius": "sp3: 77 pm, sp2: 73 pm, sp: 69 pm",
        "critical_point": NaN,
        "crystal_structure": "diamond: face-centered diamond-cubic",
        "curie_point": NaN,
        "density_at_stp": NaN,
        "density_near_rt": "amorphous: 1.8\u20132.1 g/cm3, graphite: 2.267 g/cm3, diamond: 3.515 g/cm3",
        "density_when_liquid_at_mp": NaN,
        "discovery": "Egyptians and Sumerians (3750 BCE)",
        "discovery_and_first_isolation": NaN,
        "electrical_resistivity": "graphite: 7.837 \u00b5?\u00b7m",
        "electron_configuration": "[He] 2s2 2p2",
        "electronegativity": "Pauling scale: 2.55",
        "element_category": "polyatomic nonmetal, sometimes considered a metalloid",
        "first_isolation": NaN,
        "group_block": "group 14 (carbon group), p-block",
        "heat_of_fusion": "graphite: 117 kJ/mol",
        "heat_of_vaporisation": NaN,
        "heat_of_vaporization": NaN,
        "ionisation_energies": NaN,
        "ionization_energies": "1st: 1086.5 kJ/mol, 2nd: 2352.6 kJ/mol, 3rd: 4620.5 kJ/mol, (more)",
        "iso": "iso, NA, half-life, DM, DE (MeV), DP, 11C, syn, 20 min, ?+, 0.96, 11B, 12C, 98.9%, 12C is stable with 6 neutrons, 13C, 1.1%, 13C is stable with 7 neutrons, 14C, trace, 5730 y, ??, 0.156, 14N",
        "magnetic_ordering": "diamagnetic",
        "melting_point": NaN,
        "mohs_hardness": "graphite: 1\u20132, diamond: 10",
        "molar_heat_capacity": "graphite: 8.517 J/(mol\u00b7K), diamond: 6.155 J/(mol\u00b7K)",
        "molar_volume": NaN,
        "name": "Carbon",
        "named_by": NaN,
        "naming": NaN,
        "oxidation_states": "+4, +3, +2, +1, 0, ?1, ?2, ?3, ?4 (a mildly acidic oxide)",
        "p_(pa)": NaN,
        "per_shell": "2, 4",
        "period": 2,
        "phase": "solid",
        "poisson_ratio": "diamond: 0.1",
        "prediction": NaN,
        "pronunciation": "/?k??rb?n/, KAR-b?n",
        "proposed_formal_name": NaN,
        "recognised_as_an_element_by": NaN,
        "recognized_as_a_distinct_element_by": NaN,
        "recognized_as_a_unique_metal_by": NaN,
        "recognized_as_an_element_by": "Antoine Lavoisier (1789)",
        "shear_modulus": "diamond: 478 GPa",
        "speed_of_sound": NaN,
        "speed_of_sound_thin_rod": "diamond: 18,350 m/s (at 20 \u00b0C)",
        "sublimation_point": "3915 K (3642 \u00b0C, 6588 \u00b0F)",
        "symbol": "C",
        "tensile_strength": NaN,
        "thermal_conductivity": "graphite: 119\u2013165 W/(m\u00b7K), diamond: 900\u20132300 W/(m\u00b7K)",
        "thermal_diffusivity": NaN,
        "thermal_expansion": "diamond: 0.8 \u00b5m/(m\u00b7K) (at 25 \u00b0C)",
        "triple_point": "4600 K, 10,800 kPa",
        "van_der_waals_radius": "170 pm",
        "vickers_hardness": NaN,
        "when_liquid_at_bp": NaN,
        "when_liquid_at_mp": NaN,
        "youngs_modulus": "diamond: 1050 GPa"
    }
}