var actinium_Ac = {
        "allotropes": NaN,
        "engligh_name": "Actinium",
        "latin_name": "Actinium",
        "appearance": "silvery-white, glowing with an eerie blue light; sometimes with a golden cast",
        "at_t_(k)": NaN,
        "atomic_number": 89,
        "atomic_radius": NaN,
        "atomic_weight": "(227)",
        "band_gap": NaN,
        "boiling_point": "3500\u00b1300 K (3200\u00b1300 \u00b0C, 5800\u00b1500 \u00b0F) (extrapolated)",
        "brinell_hardness": NaN,
        "bulk_modulus": NaN,
        "cas_number": "7440-34-8",
        "color": NaN,
        "covalent_radius": "215 pm",
        "critical_point": NaN,
        "crystal_structure": "face-centered cubic (fcc)",
        "curie_point": NaN,
        "density_at_stp": NaN,
        "density_near_rt": "10 g/cm3",
        "density_when_liquid_at_mp": NaN,
        "discovery": NaN,
        "discovery_and_first_isolation": "Friedrich Oskar Giesel (1902)",
        "electrical_resistivity": NaN,
        "electron_configuration": "[Rn] 6d1 7s2",
        "electronegativity": "Pauling scale: 1.1",
        "element_category": "actinide, sometimes considered a transition metal",
        "first_isolation": NaN,
        "group_block": "group n/a, f-block",
        "heat_of_fusion": "14 kJ/mol",
        "heat_of_vaporisation": NaN,
        "heat_of_vaporization": "400 kJ/mol",
        "ionisation_energies": NaN,
        "ionization_energies": "1st: 499 kJ/mol, 2nd: 1170 kJ/mol, 3rd: 1900 kJ/mol, (more)",
        "iso": "iso, NA, half-life, DM, DE (MeV), DP, 225Ac, trace, 10 d, ?, 5.935, 221Fr, 226Ac, syn, 29.37 h, ??, 1.117, 226Th, ?, 0.640, 226Ra, ?, 5.536, 222Fr, 227Ac, trace, 21.772 y, ??, 0.045, 227Th, ?, 5.042, 223Fr",
        "magnetic_ordering": NaN,
        "melting_point": "1500 K (1227 \u00b0C, 2240 \u00b0F) (estimated)",
        "mohs_hardness": NaN,
        "molar_heat_capacity": "27.2 J/(mol\u00b7K)",
        "molar_volume": NaN,
        "name": "Actinium",
        "named_by": "Andr<sup>e</sup>-Louis Debierne (1899)",
        "naming": NaN,
        "oxidation_states": "3, 2 (a neutral oxide)",
        "p_(pa)": NaN,
        "per_shell": "2, 8, 18, 32, 18, 9, 2",
        "period": 7,
        "phase": "solid",
        "poisson_ratio": NaN,
        "prediction": NaN,
        "pronunciation": "/\u00e6k?t?ni?m/, ak-TIN-nee-?m",
        "proposed_formal_name": NaN,
        "recognised_as_an_element_by": NaN,
        "recognized_as_a_distinct_element_by": NaN,
        "recognized_as_a_unique_metal_by": NaN,
        "recognized_as_an_element_by": NaN,
        "shear_modulus": NaN,
        "speed_of_sound": NaN,
        "speed_of_sound_thin_rod": NaN,
        "sublimation_point": NaN,
        "symbol": "Ac",
        "tensile_strength": NaN,
        "thermal_conductivity": "12 W/(m\u00b7K)",
        "thermal_diffusivity": NaN,
        "thermal_expansion": NaN,
        "triple_point": NaN,
        "van_der_waals_radius": NaN,
        "vickers_hardness": NaN,
        "when_liquid_at_bp": NaN,
        "when_liquid_at_mp": NaN,
        "youngs_modulus": NaN
}