{
    "sodium_Na": {
        "allotropes": NaN,
        "alternative_name": NaN,
        "alternative_names": NaN,
        "appearance": "silvery white metallic",
        "at_t_(k)": 554.0,
        "atomic_number": 11,
        "atomic_radius": "empirical: 186 pm",
        "atomic_weight": "22.98976928(2)",
        "band_gap": NaN,
        "boiling_point": "1156.090 K (882.940 \u00b0C, 1621.292 \u00b0F)",
        "brinell_hardness": "0.69 MPa",
        "bulk_modulus": "6.3 GPa",
        "cas_number": "7440-23-5",
        "color": NaN,
        "covalent_radius": "166\u00b19 pm",
        "critical_point": "2573 K, 35 MPa (extrapolated)",
        "crystal_structure": "body-centered cubic (bcc)",
        "curie_point": NaN,
        "density_at_stp": NaN,
        "density_near_rt": "0.968 g/cm3",
        "density_when_liquid_at_mp": NaN,
        "discovery": NaN,
        "discovery_and_first_isolation": "Humphry Davy (1807)",
        "electrical_resistivity": "47.7 n?\u00b7m (at 20 \u00b0C)",
        "electron_configuration": "[Ne] 3s1",
        "electronegativity": "Pauling scale: 0.93",
        "element_category": "alkali metal",
        "first_isolation": NaN,
        "group_block": "group 1 (alkali metals), s-block",
        "heat_of_fusion": "2.60 kJ/mol",
        "heat_of_vaporisation": NaN,
        "heat_of_vaporization": "97.42 kJ/mol",
        "ionisation_energies": NaN,
        "ionization_energies": "1st: 495.8 kJ/mol, 2nd: 4562 kJ/mol, 3rd: 6910.3 kJ/mol, (more)",
        "iso": "iso, NA, half-life, DM, DE (MeV), DP, 22Na, trace, 2.602 y, ?+??, 0.5454, 22Ne*, 1.27453(2), 22Ne, ???, \u2013, 22Ne*, 1.27453(2), 22Ne, ?+, 1.8200, 22Ne, 23Na, 100%, 23Na is stable with 12 neutrons",
        "magnetic_ordering": "paramagnetic",
        "melting_point": "370.944 K (97.794 \u00b0C, 208.029 \u00b0F)",
        "mohs_hardness": "0.5",
        "molar_heat_capacity": "28.230 J/(mol\u00b7K)",
        "molar_volume": NaN,
        "name": "Sodium",
        "named_by": NaN,
        "naming": NaN,
        "oxidation_states": "+1, ?1 (a strongly basic oxide)",
        "p_(pa)": "vapor pressure, P (Pa), 1, 10, 100, 1 k, 10 k, 100 k, at T (K), 554, 617, 697, 802, 946, 1153",
        "per_shell": "2, 8, 1",
        "period": 3,
        "phase": "solid",
        "poisson_ratio": NaN,
        "prediction": NaN,
        "pronunciation": "/?so?di?m/, SOH-dee-?m",
        "proposed_formal_name": NaN,
        "recognised_as_an_element_by": NaN,
        "recognized_as_a_distinct_element_by": NaN,
        "recognized_as_a_unique_metal_by": NaN,
        "recognized_as_an_element_by": NaN,
        "shear_modulus": "3.3 GPa",
        "speed_of_sound": NaN,
        "speed_of_sound_thin_rod": "3200 m/s (at 20 \u00b0C)",
        "sublimation_point": NaN,
        "symbol": "Na",
        "tensile_strength": NaN,
        "thermal_conductivity": "142 W/(m\u00b7K)",
        "thermal_diffusivity": NaN,
        "thermal_expansion": "71 \u00b5m/(m\u00b7K) (at 25 \u00b0C)",
        "triple_point": NaN,
        "van_der_waals_radius": "227 pm",
        "vickers_hardness": NaN,
        "when_liquid_at_bp": NaN,
        "when_liquid_at_mp": "0.927 g/cm3",
        "youngs_modulus": "10 GPa"
    }
}