var element_data = {
    "wiki": "https://en.wikipedia.org/wiki/Sodium",
    "video": "https://www.youtube.com/watch?v=7IT2I3LtlNE&list=PL7A1F4CF36C085DE1&index=11",
    "image": "Sodium/sodium.jpg",
    "species": "ALKALI METALS",
    "symbol": "Na",
    "latin_name": "Natrium",
    "english_name": "Sodium",
    "year_discovered": "1807",
    "discovered_by": "Humphry Davy",
    "Electron_shell": [
        {
            "K": 2
        },
        {
            "L": 8
        },
        {
            "M": 1
        },
        {
            "N": 0
        },
        {
            "O": 0
        },
        {
            "P": 0
        },
        {
            "Q": 0
        },
        {
            "R": 0
        }
    ],
    "epn_no": [
        {
            "electrons": 11,
        },
        {
            "protons": 11,
        },
        {
            "neutrons": 12
        }
    ],
    "atomic_number": 56,
    "atomic_weight": "137.327 (g/mol)",
    "density": "3.5 (g/cm³)",
    "melting_point": "727 °C = 1340.60 °F = 1000.15 K",
    "boiling_point": "1897 °C = 3446.60 °F = 2170.15 K",
    "valence_electrons": 1,
    "period": 3,
    "group": "I A",
    "block": "s-block",
    "emission_spectrum": "Sodium/Na.gif",
    "phase": "Solid",
    "phase_icon": "----",
    "fusion_heat": "2.6 (kJ &middot K)",
    "specific_heat": "1230 J/(kg &middot; K)",
    "thermal_expansion": "71 &middot; 10<sup>-6</sup> °C<sup>-1</sup>)",
    "vaporization_heat": "97.7 kJ &middot; mol",
    "electron_configuration": "[Ne] 3s<sup>1</sup>",
    "oxidation_state": "-1, +1",
    "ion_charge": "Na<sup>+</sup>",
    "ionization_potential": "5.12 eV",
    "atomic_radius": "190 (pm)",
    "covalent_radius": "154 (pm)",
    "van_der_waals_radius": "227 (pm)",
    "electrical_conductivity": "2.1 &middot; 10<sup>7</sup>",
    "electrical_type": "Conductor", 
    "magnetic_type": "Paramagnetic",
    "volume_susceptibility": "0.0000062",
    "mass_susceptibility": "0.0000000064",
    "molar_susceptibility": "2 &middot; 10<sup>-10</sup> m<sup>3</sup>/mol",
    "resistivity": "2 &middot; 10<sup>-8</sup> m\u03A9",
    "superconducting_point": "----",
    "lattice_structure": "Sodium/Lattice_body_centered_cubic.svg.png",
    "crystal_structure": "Body-centered cubic",
    "grid": "a=4.2820 \u212B",
    "attitude": "----",
    "debye_temperature": "-123.15 °C = -189.67 °F = 150 K",
    "space_group_name": "Im_3m",
    "space_group_number": "229",
    "CAS_number": "CAS7440-23-5",
    "CID_number": "CID5360545",
    "RTEC_number": "RTECSVY0686000",
    "brinell_hardness": "0.69 MPa",
    "mohs_hardness": "0.5",
    "vickers_hardness": "----",
    "bulk_modulus": "6.3 GPa",
    "Young_modulus": "10 GPa",
    "liquid_density": "0.927 (g/cm<sup>3</sup>)",
    "molar_volume": "23.7 (cm<sup>3</sup>/mol)",
    "poisson_ratio": "----",
    "shear_modulus": "3.3 GPa",
    "sound_speed": "3200 m/s",
    "refractive_index": "----",
    "thermal_conductivity": "140 W/mK",
    "electronegative": "Pauling Scale 0.93",
    "electron_affinity": "52.8 KJ/mol",
    "radioactivity": "no",
    "half_life": "\u221E",
    "life_time": "\u221E",
    "barn": "0.53 b",
    "hazard_block": [
        {
            "red": "3"
        },
        {
            "yellow": "2"
        },
        {
            "blue": "3"
        },
        {
            "white": "-"
        }
    ],
    "fire_hazard": "Below 37.7 °C",
    "health_hazard":"Extreme danger",
    "reactivity": "Violent chemical change",
    "specific": "Use no water",
    "universe_contains": "0.002 %",
    "sun_contains": "0.004 %",
    "oceans_contains": "1.1 %",
    "human_body_contains": "0.14 %",
    "earth_crust_contains": "2.3 %",
    "meteorites_contains": "0.55 %",
    "start_isotope_number": 18,
    "stop_isotope_number": 37,
    "half_life_number": ["1.3 &middot; 10<sup>-21</sup>", "40 ns", "447.9 ms", "22.49 s", "2.6027 years", "Stable", "14.9590 hours", "59.1 s", "1.077 s", "301 ms", "30.5 ms", "44.9 ms", "48.4 ms", "17.0 ms", "8.2 ms", "8.2 ms", "5.5 ms", "1.5 ms", "260 ns", "1 ms"],
    "iso_weight": [18.02597, 19.01387, 20.00735, 20.99765, 21.9943, 22.989769, 23.990962, 24.989954, 25.992633, 26.994077, 27.998938, 29.002861, 30.008976, 31.01359, 32.02047, 33.02672, 34.03517, 35.04249, 36.05148, 37.05934]
}