var element_data = {
    "wiki": "https://en.wikipedia.org/wiki/Indium",
    "video": "https://www.youtube.com/watch?v=TviX7V-ay5I&list=PL7A1F4CF36C085DE1&index=49",
    "image": "Indium/indium.jpg",
    "species": "POST-TRANSITION METAL",
    "symbol": "In",
    "latin_name": "Indium",
    "english_name": "Indium",
    "year_discovered": "1863",
    "discovered_by": "Ferdinand Reich",
    "Electron_shell": [
        {
            "K": 2
        },
        {
            "L": 8
        },
        {
            "M": 18
        },
        {
            "N": 18
        },
        {
            "O": 3
        },
        {
            "P": 0
        },
        {
            "Q": 0
        },
        {
            "R": 0
        }
    ],
    "epn_no": [
        {
            "electrons": 49,
        },
        {
            "protons": 49,
        },
        {
            "neutrons": 66
        }
    ],
    "atomic_number": 49,
    "atomic_weight": "114.818 (g/mol)",
    "density": "7.31 (g/cm³)",
    "melting_point": "156.6 °C = 313.88 °F = 429.75 K",
    "boiling_point": "2072 °C = 3761.60 °F = 2345.15 K",
    "valence_electrons": "3",
    "period": 5,
    "group": "III A",
    "block": "p-block",
    "emission_spectrum": "Indium/In.gif",
    "phase": "Solid",
    "phase_icon": "----",
    "fusion_heat": "6.26 (kJ &middot K)",
    "specific_heat": "233 J/(kg &middot; K)",
    "thermal_expansion": "32.1 &middot; 10<sup>-6</sup>°C<sup>-1</sup>)",
    "vaporization_heat": "230 kJ &middot; mol",
    "electron_configuration": "[Kr] 4d<sup>10</sup>5s<sup>2</sup>5p<sup>1</sup>",
    "oxidation_state": "-5, -2, -1, +1, +2, +3",
    "ion_charge": "In<sup>3+</sup>",
    "ionization_potential": "8.95 eV",
    "atomic_radius": "166 (pm)",
    "covalent_radius": "144 (pm)",
    "van_der_waals_radius": "193 (pm)",
    "electrical_conductivity": "1.2 &middot; 10<sup>6</sup>",
    "electrical_type": "Conductor", 
    "magnetic_type": "Diamagnetic",
    "volume_susceptibility": "-0.0000102",
    "mass_susceptibility": "-0.0000000014",
    "molar_susceptibility": "-1.61 &middot; 10<sup>-10</sup> m<sup>3</sup>/mol",
    "resistivity": "8 &middot; 10<sup>-8</sup> m\u03A9",
    "superconducting_point": "-269.74 °C = -453.53 °F = 3.41 K",
    "lattice_structure": "Indium/Tetragonal.png",
    "crystal_structure": "Tetragonal",
    "grid": "a=3.252 \u212B; c=4.946 \u212B",
    "attitude": "1.52",
    "debye_temperature": "-144.15 °C = -227.47 °F = 129 K",
    "space_group_name": "----",
    "space_group_number": "139",
    "CAS_number": "CAS7440-74-6",
    "CID_number": "CID5359967",
    "RTEC_number": "RTECSNL1050000",
    "brinell_hardness": "8.8-10.0 MPa",
    "mohs_hardness": "1",
    "vickers_hardness": "----",
    "bulk_modulus": "--- GPa",
    "Young_modulus": "11 GPa",
    "liquid_density": "7.02 (g/cm<sup>3</sup>)",
    "molar_volume": "15.7 (cm<sup>3</sup>/mol)",
    "poisson_ratio": "----",
    "shear_modulus": "---- GPa",
    "sound_speed": "1215 m/s",
    "refractive_index": "----",
    "thermal_conductivity": "82 W/mK",
    "electronegative": "Pauling Scale 1.78",
    "electron_affinity": "28.9 KJ/mol",
    "radioactivity": "no",
    "half_life": "\u221E",
    "life_time": "\u221E",
    "barn": "194 b",
    "hazard_block": [
        {
            "red": "-"
        },
        {
            "yellow": "-"
        },
        {
            "blue": "-"
        },
        {
            "white": "-"
        }
    ],
    "fire_hazard": "----",
    "health_hazard":"----",
    "reactivity": "----",
    "specific": "----",
    "universe_contains": "3 &middot; 10<sup>-8</sup> %",
    "sun_contains": "4 &middot; 10<sup>-7</sup> %",
    "oceans_contains": "1 &middot; 10<sup>-11</sup> %",
    "human_body_contains": "---- %",
    "earth_crust_contains": "0.000016 %",
    "meteorites_contains": "4.4 &middot; 10<sup>-6</sup> %",
    "start_isotope_number": 97,
    "stop_isotope_number": 111,
    "half_life_number": ["5 ms", "45 ms", "3.1 s", "5.9 s", "15.1", "23.3 s", "60 s", "1.80 m", "5.07 m", "6.2 m", "32.4 m", "58.0 m", "4.2 hours", "4.9 hours", "2.8047 days"],
    "iso_weight": [96.96954, 97.94214, 98.93422, 99.93111, 100.92634, 101.92409, 102.91991, 103.91830, 104.91830, 105.913465, 106.910295, 107.909698, 108.907151, 109.907165, 110.905103]
}