{
    "indium_In": {
        "allotropes": NaN,
        "alternative_name": NaN,
        "alternative_names": NaN,
        "appearance": "silvery lustrous gray",
        "at_t_(k)": 1196.0,
        "atomic_number": 49,
        "atomic_radius": "empirical: 167 pm",
        "atomic_weight": "114.818(1)",
        "band_gap": NaN,
        "boiling_point": "2345 K (2072 \u00b0C, 3762 \u00b0F)",
        "brinell_hardness": "8.8\u201310.0 MPa",
        "bulk_modulus": NaN,
        "cas_number": "7440-74-6",
        "color": NaN,
        "covalent_radius": "142\u00b15 pm",
        "critical_point": NaN,
        "crystal_structure": "tetragonal",
        "curie_point": NaN,
        "density_at_stp": NaN,
        "density_near_rt": "7.31 g/cm3",
        "density_when_liquid_at_mp": NaN,
        "discovery": "Ferdinand Reich and Hieronymous Theodor Richter (1863)",
        "discovery_and_first_isolation": NaN,
        "electrical_resistivity": "83.7 n?\u00b7m (at 20 \u00b0C)",
        "electron_configuration": "[Kr] 4d10 5s2 5p1",
        "electronegativity": "Pauling scale: 1.78",
        "element_category": "post-transition metal",
        "first_isolation": "Hieronymous Theodor Richter (1864)",
        "group_block": "group 13, p-block",
        "heat_of_fusion": "3.281 kJ/mol",
        "heat_of_vaporisation": NaN,
        "heat_of_vaporization": "231.8 kJ/mol",
        "ionisation_energies": NaN,
        "ionization_energies": "1st: 558.3 kJ/mol, 2nd: 1820.7 kJ/mol, 3rd: 2704 kJ/mol",
        "iso": "iso, NA, half-life, DM, DE (MeV), DP, 113In, 4.28%, 113In is stable with 64 neutrons, 115In, 95.72%, 4.41\u00d71014 y, ??, 0.495, 115Sn",
        "magnetic_ordering": "diamagnetic",
        "melting_point": "429.7485 K (156.5985 \u00b0C, 313.8773 \u00b0F)",
        "mohs_hardness": "1.2",
        "molar_heat_capacity": "26.74 J/(mol\u00b7K)",
        "molar_volume": NaN,
        "name": "Indium",
        "named_by": NaN,
        "naming": NaN,
        "oxidation_states": "3, 2, 1, ?1, ?2, ?5 (an amphoteric oxide)",
        "p_(pa)": "vapor pressure, P (Pa), 1, 10, 100, 1 k, 10 k, 100 k, at T (K), 1196, 1325, 1485, 1690, 1962, 2340",
        "per_shell": "2, 8, 18, 18, 3",
        "period": 5,
        "phase": "solid",
        "poisson_ratio": NaN,
        "prediction": NaN,
        "pronunciation": "/??ndi?m/, IN-dee-?m",
        "proposed_formal_name": NaN,
        "recognised_as_an_element_by": NaN,
        "recognized_as_a_distinct_element_by": NaN,
        "recognized_as_a_unique_metal_by": NaN,
        "recognized_as_an_element_by": NaN,
        "shear_modulus": NaN,
        "speed_of_sound": NaN,
        "speed_of_sound_thin_rod": "1215 m/s (at 20 \u00b0C)",
        "sublimation_point": NaN,
        "symbol": "In",
        "tensile_strength": NaN,
        "thermal_conductivity": "81.8 W/(m\u00b7K)",
        "thermal_diffusivity": NaN,
        "thermal_expansion": "32.1 \u00b5m/(m\u00b7K) (at 25 \u00b0C)",
        "triple_point": "429.7445 K, ~1 kPa",
        "van_der_waals_radius": "193 pm",
        "vickers_hardness": NaN,
        "when_liquid_at_bp": NaN,
        "when_liquid_at_mp": "7.02 g/cm3",
        "youngs_modulus": "11 GPa"
    }
}