{
    "yttrium_Y": {
        "allotropes": NaN,
        "alternative_name": NaN,
        "alternative_names": NaN,
        "appearance": "silvery white",
        "at_t_(k)": 1883.0,
        "atomic_number": 39,
        "atomic_radius": "empirical: 180 pm",
        "atomic_weight": "88.90584(2)",
        "band_gap": NaN,
        "boiling_point": "3203 K (2930 \u00b0C, 5306 \u00b0F)",
        "brinell_hardness": "200\u2013589 MPa",
        "bulk_modulus": "41.2 GPa",
        "cas_number": "7440-65-5",
        "color": NaN,
        "covalent_radius": "190\u00b17 pm",
        "critical_point": NaN,
        "crystal_structure": "hexagonal close-packed (hcp)",
        "curie_point": NaN,
        "density_at_stp": NaN,
        "density_near_rt": "4.472 g/cm3",
        "density_when_liquid_at_mp": NaN,
        "discovery": "Johan Gadolin (1794)",
        "discovery_and_first_isolation": NaN,
        "electrical_resistivity": "?, poly: 596 n?\u00b7m (at r.t.)",
        "electron_configuration": "[Kr] 4d1 5s2",
        "electronegativity": "Pauling scale: 1.22",
        "element_category": "transition metal",
        "first_isolation": "Carl Gustav Mosander (1840)",
        "group_block": "group 3, d-block",
        "heat_of_fusion": "11.42 kJ/mol",
        "heat_of_vaporisation": NaN,
        "heat_of_vaporization": "363 kJ/mol",
        "ionisation_energies": NaN,
        "ionization_energies": "1st: 600 kJ/mol, 2nd: 1180 kJ/mol, 3rd: 1980 kJ/mol",
        "iso": "iso\nNA\nhalf-life\nDM\nDE (MeV)\nDP\n\n\n87Y\nsyn\n3.35 d\n?\n\u2013\n87Sr\n\n\n?\n0.48, 0.38D\n\u2013\n\n\n88Y\nsyn\n106.6 d\n?\n\u2013\n88Sr\n\n\n?\n1.83, 0.89\n\u2013\n\n\n89Y\n100%\n89Y is stable with 50 neutrons\n\n\n90Y\nsyn\n2.67 d\n??\n2.28\n90Zr\n\n\n?\n2.18\n\u2013\n\n\n91Y\nsyn\n58.5 d\n??\n1.54\n91Zr\n\n\n?\n1.20\n\u2013",
        "magnetic_ordering": "paramagnetic",
        "melting_point": "1799 K (1526 \u00b0C, 2779 \u00b0F)",
        "mohs_hardness": NaN,
        "molar_heat_capacity": "26.53 J/(mol\u00b7K)",
        "molar_volume": NaN,
        "name": "Yttrium",
        "named_by": NaN,
        "naming": "after Ytterby, Sweden and its mineral ytterbite (gadolinite)",
        "oxidation_states": "3, 2, 1 (a weakly basic oxide)",
        "p_(pa)": "vapor pressure, P (Pa), 1, 10, 100, 1 k, 10 k, 100 k, at T (K), 1883, 2075, (2320), (2627), (3036), (3607)",
        "per_shell": "2, 8, 18, 9, 2",
        "period": 5,
        "phase": "solid",
        "poisson_ratio": "0.243",
        "prediction": NaN,
        "pronunciation": "/??tri?m/, IT-ree-?m",
        "proposed_formal_name": NaN,
        "recognised_as_an_element_by": NaN,
        "recognized_as_a_distinct_element_by": NaN,
        "recognized_as_a_unique_metal_by": NaN,
        "recognized_as_an_element_by": NaN,
        "shear_modulus": "25.6 GPa",
        "speed_of_sound": NaN,
        "speed_of_sound_thin_rod": "3300 m/s (at 20 \u00b0C)",
        "sublimation_point": NaN,
        "symbol": "Y",
        "tensile_strength": NaN,
        "thermal_conductivity": "17.2 W/(m\u00b7K)",
        "thermal_diffusivity": NaN,
        "thermal_expansion": "?, poly: 10.6 \u00b5m/(m\u00b7K) (at r.t.)",
        "triple_point": NaN,
        "van_der_waals_radius": NaN,
        "vickers_hardness": NaN,
        "when_liquid_at_bp": NaN,
        "when_liquid_at_mp": "4.24 g/cm3",
        "youngs_modulus": "63.5 GPa"
    }
}