{
    "holmium_Ho": {
        "allotropes": NaN,
        "alternative_name": NaN,
        "alternative_names": NaN,
        "appearance": "silvery white",
        "at_t_(k)": 1432.0,
        "atomic_number": 67,
        "atomic_radius": "empirical: 176 pm",
        "atomic_weight": "164.93033(2)",
        "band_gap": NaN,
        "boiling_point": "2873 K (2600 \u00b0C, 4712 \u00b0F)",
        "brinell_hardness": "500\u20131250 MPa",
        "bulk_modulus": "40.2 GPa",
        "cas_number": "7440-60-0",
        "color": NaN,
        "covalent_radius": "192\u00b17 pm",
        "critical_point": NaN,
        "crystal_structure": "hexagonal close-packed (hcp)",
        "curie_point": NaN,
        "density_at_stp": NaN,
        "density_near_rt": "8.79 g/cm3",
        "density_when_liquid_at_mp": NaN,
        "discovery": "Marc Delafontaine (1878)",
        "discovery_and_first_isolation": NaN,
        "electrical_resistivity": "poly: 814 n?\u00b7m (at r.t.)",
        "electron_configuration": "[Xe] 4f11 6s2",
        "electronegativity": "Pauling scale: 1.23",
        "element_category": "lanthanide",
        "first_isolation": NaN,
        "group_block": "group n/a, f-block",
        "heat_of_fusion": "17.0 kJ/mol",
        "heat_of_vaporisation": NaN,
        "heat_of_vaporization": "251 kJ/mol",
        "ionisation_energies": NaN,
        "ionization_energies": "1st: 581.0 kJ/mol, 2nd: 1140 kJ/mol, 3rd: 2204 kJ/mol",
        "iso": "iso, NA, half-life, DM, DE (MeV), DP, 163Ho, syn, 4570 y, ?, 0.003, 163Dy, 164Ho, syn, 29 min, ?, 0.987, 164Dy, 165Ho, 100%, 165Ho is stable with 98 neutrons, 166Ho, syn, 26.763 h, ??, 1.855, 166Er, 167Ho, syn, 3.1 h, ??, 1.007, 167Er",
        "magnetic_ordering": "paramagnetic",
        "melting_point": "1734 K (1461 \u00b0C, 2662 \u00b0F)",
        "mohs_hardness": NaN,
        "molar_heat_capacity": "27.15 J/(mol\u00b7K)",
        "molar_volume": NaN,
        "name": "Holmium",
        "named_by": NaN,
        "naming": NaN,
        "oxidation_states": "3, 2, 1 (a basic oxide)",
        "p_(pa)": "vapor pressure, P (Pa), 1, 10, 100, 1 k, 10 k, 100 k, at T (K), 1432, 1584, (1775), (2040), (2410), (2964)",
        "per_shell": "2, 8, 18, 29, 8, 2",
        "period": 6,
        "phase": "solid",
        "poisson_ratio": "0.231",
        "prediction": NaN,
        "pronunciation": "/?ho?lmi?m/, HOHL-mee-?m",
        "proposed_formal_name": NaN,
        "recognised_as_an_element_by": NaN,
        "recognized_as_a_distinct_element_by": NaN,
        "recognized_as_a_unique_metal_by": NaN,
        "recognized_as_an_element_by": NaN,
        "shear_modulus": "26.3 GPa",
        "speed_of_sound": NaN,
        "speed_of_sound_thin_rod": "2760 m/s (at 20 \u00b0C)",
        "sublimation_point": NaN,
        "symbol": "Ho",
        "tensile_strength": NaN,
        "thermal_conductivity": "16.2 W/(m\u00b7K)",
        "thermal_diffusivity": NaN,
        "thermal_expansion": "poly: 11.2 \u00b5m/(m\u00b7K) (at r.t.)",
        "triple_point": NaN,
        "van_der_waals_radius": NaN,
        "vickers_hardness": "410\u2013600 MPa",
        "when_liquid_at_bp": NaN,
        "when_liquid_at_mp": "8.34 g/cm3",
        "youngs_modulus": "64.8 GPa"
    }
}