{
    "radon_Rn": {
        "allotropes": NaN,
        "alternative_name": NaN,
        "alternative_names": NaN,
        "appearance": "colorless gas, occasionally glows green or red in discharge tubes",
        "at_t_(k)": 110.0,
        "atomic_number": 86,
        "atomic_radius": NaN,
        "atomic_weight": "(222)",
        "band_gap": NaN,
        "boiling_point": "211.5 K (?61.7 \u00b0C, ?79.1 \u00b0F)",
        "brinell_hardness": NaN,
        "bulk_modulus": NaN,
        "cas_number": "10043-92-2",
        "color": NaN,
        "covalent_radius": "150 pm",
        "critical_point": "377 K, 6.28 MPa",
        "crystal_structure": "face-centered cubic (fcc)",
        "curie_point": NaN,
        "density_at_stp": "9.73 g/L",
        "density_near_rt": NaN,
        "density_when_liquid_at_mp": NaN,
        "discovery": "Ernest Rutherford and Robert B. Owens (1899)",
        "discovery_and_first_isolation": NaN,
        "electrical_resistivity": NaN,
        "electron_configuration": "[Xe] 4f14 5d10 6s2 6p6",
        "electronegativity": "Pauling scale: 2.2",
        "element_category": "noble gas",
        "first_isolation": "William Ramsay and Robert Whytlaw-Gray (1910)",
        "group_block": "group 18 (noble gases), p-block",
        "heat_of_fusion": "3.247 kJ/mol",
        "heat_of_vaporisation": NaN,
        "heat_of_vaporization": "18.10 kJ/mol",
        "ionisation_energies": NaN,
        "ionization_energies": "1st: 1037 kJ/mol",
        "iso": "iso, NA, half-life, DM, DE (MeV), DP, 210Rn, syn, 2.4 h, ?, 6.404, 206Po, 211Rn, syn, 14.6 h, ?, 2.892, 211At, ?, 5.965, 207Po, 222Rn, trace, 3.8235 d, ?, 5.590, 218Po, 224Rn, syn, 1.8 h, ??, 0.8, 224Fr",
        "magnetic_ordering": "non-magnetic",
        "melting_point": "202 K (?71 \u00b0C, ?96 \u00b0F)",
        "mohs_hardness": NaN,
        "molar_heat_capacity": "5R/2 = 20.786 J/(mol\u00b7K)",
        "molar_volume": NaN,
        "name": "Radon",
        "named_by": NaN,
        "naming": NaN,
        "oxidation_states": "6, 2, 0",
        "p_(pa)": "vapor pressure, P (Pa), 1, 10, 100, 1 k, 10 k, 100 k, at T (K), 110, 121, 134, 152, 176, 211",
        "per_shell": "2, 8, 18, 32, 18, 8",
        "period": 6,
        "phase": "gas",
        "poisson_ratio": NaN,
        "prediction": NaN,
        "pronunciation": "/?re?d?n/ RAY-don",
        "proposed_formal_name": NaN,
        "recognised_as_an_element_by": NaN,
        "recognized_as_a_distinct_element_by": NaN,
        "recognized_as_a_unique_metal_by": NaN,
        "recognized_as_an_element_by": NaN,
        "shear_modulus": NaN,
        "speed_of_sound": NaN,
        "speed_of_sound_thin_rod": NaN,
        "sublimation_point": NaN,
        "symbol": "Rn",
        "tensile_strength": NaN,
        "thermal_conductivity": "3.61\u00d710?3  W/(m\u00b7K)",
        "thermal_diffusivity": NaN,
        "thermal_expansion": NaN,
        "triple_point": NaN,
        "van_der_waals_radius": "220 pm",
        "vickers_hardness": NaN,
        "when_liquid_at_bp": "4.4 g/cm3",
        "when_liquid_at_mp": NaN,
        "youngs_modulus": NaN
    }
}