var element_data = {
    "wiki": "https://en.wikipedia.org/wiki/Radon",
    "video": "https://www.youtube.com/watch?v=mTuC_LrEfbU&list=PL7A1F4CF36C085DE1&index=86",
    "image": "Radon/radon.jpg",
    "species": "NOBLE GASES",
    "symbol": "Rn",
    "latin_name": "Radon",
    "english_name": "Radon",
    "year_discovered": "1900",
    "discovered_by": "Friedrich Ernst Dorn",
    "Electron_shell": [
        {
            "K": 2
        },
        {
            "L": 8
        },
        {
            "M": 18
        },
        {
            "N": 32
        },
        {
            "O": 18
        },
        {
            "P": 8
        },
        {
            "Q": 0
        },
        {
            "R": 0
        }
    ],
    "epn_no": [
        {
            "electrons": 86,
        },
        {
            "protons": 86,
        },
        {
            "neutrons": 136
        }
    ],
    "atomic_number": 86,
    "atomic_weight": "222.0176 (g/mol)",
    "density": "0.0098 (g/cm³)",
    "melting_point": "-71.15 °C = -96.07 °F = 202.00 K",
    "boiling_point": "-61.7 °C = -79.06 °F = 211.45 K",
    "valence_electrons": 6,
    "period": 6,
    "group": "VIII B",
    "block": "p-block",
    "emission_spectrum": "Radon/Rn.gif",
    "phase": "Solid",
    "phase_icon": "----",
    "fusion_heat": "3 (kJ &middot K)",
    "specific_heat": "93.65 J/(kg &middot; K)",
    "thermal_expansion": "---- °C<sup>-1</sup>)",
    "vaporization_heat": "17 kJ &middot; mol",
    "electron_configuration": "[Xe] 4f<sup>14</sup> 5d<sup>10</sup> 6s<sup>2</sup> 6p<sup>6</sup>",
    "oxidation_state": "+2, +6",
    "ion_charge": "----",
    "ionization_potential": "---- eV",
    "atomic_radius": "214 (pm)",
    "covalent_radius": "145 (pm)",
    "van_der_waals_radius": "220 (pm)",
    "electrical_conductivity": "----",
    "electrical_type": "----", 
    "magnetic_type": "----",
    "volume_susceptibility": "----",
    "mass_susceptibility": "----",
    "molar_susceptibility": "---- m<sup>3</sup>/mol",
    "resistivity": "---- m\u03A9",
    "superconducting_point": "----",
    "lattice_structure": "Radon/Cubic-face-centered.svg.png",
    "crystal_structure": "Face-centered cubic",
    "grid": "----",
    "attitude": "----",
    "debye_temperature": "----",
    "space_group_name": "----",
    "space_group_number": "----",
    "CAS_number": "CAS10043-92-2",
    "CID_number": "CID24857",
    "RTEC_number": "RTECSVE3750000",
    "brinell_hardness": "---- MPa",
    "mohs_hardness": "----",
    "vickers_hardness": "----",
    "bulk_modulus": "---- GPa",
    "Young_modulus": "---- GPa",
    "liquid_density": "---- (g/cm<sup>3</sup>)",
    "molar_volume": "---- (cm<sup>3</sup>/mol)",
    "poisson_ratio": "----",
    "shear_modulus": "---- GPa",
    "sound_speed": "---- m/s",
    "refractive_index": "----",
    "thermal_conductivity": "0.00361 W/mK",
    "electronegative": "Pauling Scale ----",
    "electron_affinity": "0 KJ/mol",
    "radioactivity": "yes",
    "half_life": "3.8 days",
    "life_time": "5.5 days",
    "barn": "0.7 b",
    "hazard_block": [
        {
            "red": "-"
        },
        {
            "yellow": "-"
        },
        {
            "blue": "-"
        },
        {
            "white": "-"
        }
    ],
    "fire_hazard": "----",
    "health_hazard":"----",
    "reactivity": "----",
    "specific": "----",
    "universe_contains": "---- %",
    "sun_contains": "---- %",
    "oceans_contains": "6 &middot; 10<sup>-20</sup> %",
    "human_body_contains": "---- %",
    "earth_crust_contains": "---- %",
    "meteorites_contains": "---- %",
    "start_isotope_number": 195,
    "stop_isotope_number": 199,
    "half_life_number": ["6 ms", "4.7 ms", "66 ms", "65 ms", "620 ms"],
    "iso_weight": [195.00544, 196.02115, 197.00158, 197.99867, 198.99837]
}