{
    "xenon_Xe": {
        "allotropes": NaN,
        "alternative_name": NaN,
        "alternative_names": NaN,
        "appearance": "colorless gas, exhibiting a blue glow when placed in a high voltage electric field",
        "at_t_(k)": 83.0,
        "atomic_number": 54,
        "atomic_radius": NaN,
        "atomic_weight": "131.293(6)",
        "band_gap": NaN,
        "boiling_point": "165.051 K (?108.099 \u00b0C, ?162.578 \u00b0F)",
        "brinell_hardness": NaN,
        "bulk_modulus": NaN,
        "cas_number": "7440-63-3",
        "color": NaN,
        "covalent_radius": "140\u00b19 pm",
        "critical_point": "289.733 K, 5.842 MPa",
        "crystal_structure": "face-centered cubic (fcc)",
        "curie_point": NaN,
        "density_at_stp": "5.894 g/L",
        "density_near_rt": NaN,
        "density_when_liquid_at_mp": NaN,
        "discovery": NaN,
        "discovery_and_first_isolation": "William Ramsay and Morris Travers (1898)",
        "electrical_resistivity": NaN,
        "electron_configuration": "[Kr] 4d10 5s2 5p6",
        "electronegativity": "Pauling scale: 2.6",
        "element_category": "noble gas",
        "first_isolation": NaN,
        "group_block": "group 18 (noble gases), p-block",
        "heat_of_fusion": "2.27 kJ/mol",
        "heat_of_vaporisation": NaN,
        "heat_of_vaporization": "12.64 kJ/mol",
        "ionisation_energies": NaN,
        "ionization_energies": "1st: 1170.4 kJ/mol, 2nd: 2046.4 kJ/mol, 3rd: 3099.4 kJ/mol",
        "iso": "iso, NA, half-life, DM, DE (MeV), DP, 124Xe, 0.095%, 124Xe is stable with 70 neutrons, 125Xe, syn, 16.9 h, ?, 1.652, 125I, 126Xe, 0.089%, 126Xe is stable with 72 neutrons, 127Xe, syn, 36.345 d, ?, 0.662, 127I, 128Xe, 1.910%, 128Xe is stable with 74 neutrons, 129Xe, 26.401%, 129Xe is stable with 75 neutrons, 130Xe, 4.071%, 130Xe is stable with 76 neutrons, 131Xe, 21.232%, 131Xe is stable with 77 neutrons, 132Xe, 26.909%, 132Xe is stable with 78 neutrons, 133Xe, syn, 5.247 d, ??, 0.427, 133Cs, 134Xe, 10.436%, 134Xe is stable with 80 neutrons, 135Xe, syn, 9.14 h, ??, 1.16, 135Cs, 136Xe, 8.857%, 2.165\u00d71021 y, ????, 2.45783, 136Ba",
        "magnetic_ordering": "diamagnetic",
        "melting_point": "161.40 K (?111.75 \u00b0C, ?169.15 \u00b0F)",
        "mohs_hardness": NaN,
        "molar_heat_capacity": "21.01 J/(mol\u00b7K)",
        "molar_volume": NaN,
        "name": "Xenon",
        "named_by": NaN,
        "naming": NaN,
        "oxidation_states": "0, +1, +2, +4, +6, +8 (rarely more than 0; a weakly acidic oxide)",
        "p_(pa)": "vapor pressure, P (Pa), 1, 10, 100, 1 k, 10 k, 100 k, at T (K), 83, 92, 103, 117, 137, 165",
        "per_shell": "2, 8, 18, 18, 8",
        "period": 5,
        "phase": "gas",
        "poisson_ratio": NaN,
        "prediction": NaN,
        "pronunciation": "/?z?n?n/ or /?zi?n?n/, ZEN-on or ZEE-non",
        "proposed_formal_name": NaN,
        "recognised_as_an_element_by": NaN,
        "recognized_as_a_distinct_element_by": NaN,
        "recognized_as_a_unique_metal_by": NaN,
        "recognized_as_an_element_by": NaN,
        "shear_modulus": NaN,
        "speed_of_sound": "gas: 178 m\u00b7s?1, liquid: 1090 m/s",
        "speed_of_sound_thin_rod": NaN,
        "sublimation_point": NaN,
        "symbol": "Xe",
        "tensile_strength": NaN,
        "thermal_conductivity": "5.65\u00d710?3 W/(m\u00b7K)",
        "thermal_diffusivity": NaN,
        "thermal_expansion": NaN,
        "triple_point": "161.405 K, 81.77 kPa",
        "van_der_waals_radius": "216 pm",
        "vickers_hardness": NaN,
        "when_liquid_at_bp": "2.942 g/cm3",
        "when_liquid_at_mp": NaN,
        "youngs_modulus": NaN
    }
}