var element_data = {
    "wiki": "https://en.wikipedia.org/wiki/Helium",
    "video": "https://www.youtube.com/watch?v=M6xZZiaLOV4&list=PL7A1F4CF36C085DE1&index=2",
    "image": "Helium/helium.jpg",
    "species": "ALKALINE EARTH METALS",
    "symbol": "He",
    "latin_name": "Helium",
    "english_name": "Helium",
    "year_discovered": "1895",
    "discovered_by": "Pierre Jules César Janssen, Joseph Norman Lockyer",
    "Electron_shell": [
        {
            "K": 2
        },
        {
            "L": 0
        },
        {
            "M": 0
        },
        {
            "N": 0
        },
        {
            "O": 0
        },
        {
            "P": 0
        },
        {
            "Q": 0
        },
        {
            "R": 0
        }
    ],
    "epn_no": [
        {
            "electrons": 2,
        },
        {
            "protons": 2,
        },
        {
            "neutrons": 2
        }
    ],
    "atomic_number": 2,
    "atomic_weight": "4.0026 (g/mol)",
    "density": "0.00017846 (g/cm³)",
    "melting_point": "-272.2 °C = -457.96 °F = 0.95 K",
    "boiling_point": "-268.9 °C = -452.02 °F = 4.25 K",
    "valence_electrons": "0",
    "period": 1,
    "group": "VIII A",
    "block": "s-block",
    "emission_spectrum": "Helium/He.gif",
    "phase": "Gas",
    "phase_icon": "----",
    "fusion_heat": "0.02 (kJ &middot K)",
    "specific_heat": "5193.1 J/(kg &middot; K)",
    "thermal_expansion": "---- °C<sup>-1</sup>)",
    "vaporization_heat": "0.083 kJ &middot; mol",
    "electron_configuration": "1s<sup>2</sup>",
    "oxidation_state": "----",
    "ion_charge": "----",
    "ionization_potential": "24.47 eV",
    "atomic_radius": "31 (pm)",
    "covalent_radius": "32 (pm)",
    "van_der_waals_radius": "140 (pm)",
    "electrical_conductivity": "----",
    "electrical_type": "----", 
    "magnetic_type": "Diamagnetic",
    "volume_susceptibility": "-0.00000000105",
    "mass_susceptibility": "-0.0000000059",
    "molar_susceptibility": "-2.36 &middot; 10<sup>-11</sup> m<sup>3</sup>/mol",
    "resistivity": "3.5 &middot; 10<sup>-7</sup> m\u03A9",
    "superconducting_point": "----",
    "lattice_structure": "Helium/Lattice_body_centered_cubic.svg.png",
    "crystal_structure": "Body-centered cubic",
    "grid": "a=5.020 \u212B; α=54.17° ",
    "attitude": "----",
    "debye_temperature": "----",
    "space_group_name": "Fm_3m",
    "space_group_number": "225",
    "CAS_number": "CAS7440-59-7",
    "CID_number": "CID535987",
    "RTEC_number": "RTECSMH6520000",
    "brinell_hardness": "---- MPa",
    "mohs_hardness": "----",
    "vickers_hardness": "----",
    "bulk_modulus": "---- GPa",
    "Young_modulus": "---- GPa",
    "liquid_density": "---- (g/cm<sup>3</sup>)",
    "molar_volume": "31.8 (cm<sup>3</sup>/mol)",
    "poisson_ratio": "----",
    "shear_modulus": "---- GPa",
    "sound_speed": "970 m/s",
    "refractive_index": "----",
    "thermal_conductivity": "0.1513 W/mK",
    "electronegative": "Pauling Scale ----",
    "electron_affinity": "0 KJ/mol",
    "radioactivity": "no",
    "half_life": "\u221E",
    "life_time": "\u221E",
    "barn": "4.3 b",
    "hazard_block": [
        {
            "red": "0"
        },
        {
            "yellow": "0"
        },
        {
            "blue": "1"
        },
        {
            "white": "-"
        }
    ],
    "fire_hazard": "Will not burn",
    "health_hazard":"Slightly hazardous",
    "reactivity": "Stable",
    "specific": "----",
    "universe_contains": "23 %",
    "sun_contains": "23 %",
    "oceans_contains": "7.2 &middot; 10<sup>-10</sup> %",
    "human_body_contains": "---- %",
    "earth_crust_contains": "5.5 &middot; 10<sup>-7</sup> %",
    "meteorites_contains": "---- %",
    "start_isotope_number": 2,
    "stop_isotope_number": 10,
    "half_life_number": ["-", "-", "700 &middot; 10<sup>-24</sup> s", "806.7 ms", "2.9 &middot; 10<sup>-21</sup> s", "119.05 ms", "7 &middot; 10<sup>-21</sup> s", "2.7 &middot; 10<sup>-21</sup> s"],
    "iso_weight": [3.01602, 4.00260, 5.012222, 6.01888, 7.02802, 8.02248, 9.04395, 10.0524]
}