{
    "helium_He": {
        "allotropes": NaN,
        "alternative_name": NaN,
        "alternative_names": NaN,
        "appearance": "colorless gas, exhibiting a red-orange glow when placed in a high-voltage electric field",
        "at_t_(k)": NaN,
        "atomic_number": 2,
        "atomic_radius": NaN,
        "atomic_weight": "4.002602(2)",
        "band_gap": NaN,
        "boiling_point": "4.222 K (?268.928 \u00b0C, ?452.070 \u00b0F)",
        "brinell_hardness": NaN,
        "bulk_modulus": NaN,
        "cas_number": "7440-59-7",
        "color": NaN,
        "covalent_radius": "28 pm",
        "critical_point": "5.1953 K, 0.22746 MPa",
        "crystal_structure": "hexagonal close-packed (hcp)",
        "curie_point": NaN,
        "density_at_stp": "0.1786 g/L",
        "density_near_rt": NaN,
        "density_when_liquid_at_mp": NaN,
        "discovery": "Pierre Janssen, Norman Lockyer (1868)",
        "discovery_and_first_isolation": NaN,
        "electrical_resistivity": NaN,
        "electron_configuration": "1s2",
        "electronegativity": "Pauling scale: no data",
        "element_category": "noble gas",
        "first_isolation": "William Ramsay, Per Teodor Cleve, Abraham Langlet (1895)",
        "group_block": "group 18 (noble gases), s-block",
        "heat_of_fusion": "0.0138 kJ/mol",
        "heat_of_vaporisation": NaN,
        "heat_of_vaporization": "0.0829 kJ/mol",
        "ionisation_energies": NaN,
        "ionization_energies": "1st: 2372.3 kJ/mol, 2nd: 5250.5 kJ/mol",
        "iso": "iso, NA, half-life, DM, DE (MeV), DP, 3He, 0.0002%, 3He is stable with 1 neutron, 4He, 99.9998%, 4He is stable with 2 neutrons",
        "magnetic_ordering": "diamagnetic",
        "melting_point": "0.95 K (?272.20 \u00b0C, ?457.96 \u00b0F) (at 2.5 MPa)",
        "mohs_hardness": NaN,
        "molar_heat_capacity": "20.78 J/(mol\u00b7K)",
        "molar_volume": NaN,
        "name": "Helium",
        "named_by": NaN,
        "naming": "after Helios, Greek god of the Sun",
        "oxidation_states": "0",
        "p_(pa)": "vapor pressure (defined by ITS-90), P (Pa), 1, 10, 100, 1 k, 10 k, 100 k, at T (K), 1.23, 1.67, 2.48, 4.21",
        "per_shell": "2",
        "period": 1,
        "phase": "gas",
        "poisson_ratio": NaN,
        "prediction": NaN,
        "pronunciation": "/?hi?li?m/, HEE-lee-?m",
        "proposed_formal_name": NaN,
        "recognised_as_an_element_by": NaN,
        "recognized_as_a_distinct_element_by": NaN,
        "recognized_as_a_unique_metal_by": NaN,
        "recognized_as_an_element_by": NaN,
        "shear_modulus": NaN,
        "speed_of_sound": "972 m/s",
        "speed_of_sound_thin_rod": NaN,
        "sublimation_point": NaN,
        "symbol": "He",
        "tensile_strength": NaN,
        "thermal_conductivity": "0.1513 W/(m\u00b7K)",
        "thermal_diffusivity": NaN,
        "thermal_expansion": NaN,
        "triple_point": "2.177 K, 5.043 kPa",
        "van_der_waals_radius": "140 pm",
        "vickers_hardness": NaN,
        "when_liquid_at_bp": "0.125 g/cm3",
        "when_liquid_at_mp": "0.145 g/cm3",
        "youngs_modulus": NaN
    }
}