var element_data = {
    "wiki": "https://en.wikipedia.org/wiki/Strontium",
    "video": "https://www.youtube.com/watch?v=d5ztPGrsgNQ&list=PL7A1F4CF36C085DE1&index=38",
    "image": "Strontium/strontium.jpg",
    "species": "ALKALINE EARTH METALS",
    "symbol": "Sr",
    "latin_name": "Strontium",
    "english_name": "Strontium",
    "year_discovered": "1790",
    "discovered_by": "Adair Crawford",
    "Electron_shell": [
        {
            "K": 2
        },
        {
            "L": 8
        },
        {
            "M": 18
        },
        {
            "N": 8
        },
        {
            "O": 2
        },
        {
            "P": 0
        },
        {
            "Q": 0
        },
        {
            "R": 0
        }
    ],
    "epn_no": [
        {
            "electrons": 38,
        },
        {
            "protons": 38,
        },
        {
            "neutrons": 50
        }
    ],
    "atomic_number": 38,
    "atomic_weight": "87.62 (g/mol)",
    "density": "2.54 (g/cm³)",
    "melting_point": "777 °C = 1430.60 °F = 1050.15 K",
    "boiling_point": "1382 °C = 2519.60 °F = 1655.15 K",
    "valence_electrons": 2,
    "period": 5,
    "group": "II A",
    "block": "s-block",
    "emission_spectrum": "Strontium/Sr.gif",
    "phase": "Solid",
    "phase_icon": "----",
    "fusion_heat": "8 (kJ &middot K)",
    "specific_heat": "300 J/(kg &middot; K)",
    "thermal_expansion": "22.5 &middot; 10<sup>-6</sup>°C<sup>-1</sup>)",
    "vaporization_heat": "137 kJ &middot; mol",
    "electron_configuration": "[Kr] 5s<sup>2</sup>",
    "oxidation_state": "+1, +2",
    "ion_charge": "Sr<sup>2+</sup>",
    "ionization_potential": "5.67 eV",
    "atomic_radius": "215 (pm)",
    "covalent_radius": "192 (pm)",
    "van_der_waals_radius": "249 (pm)",
    "electrical_conductivity": "7.7 &middot; 10<sup>6</sup>",
    "electrical_type": "Conductor", 
    "magnetic_type": "Paramagnetic",
    "volume_susceptibility": "-0.00000658",
    "mass_susceptibility": "-0.0000000025",
    "molar_susceptibility": "1.16 &middot; 10<sup>-10</sup> m<sup>3</sup>/mol",
    "resistivity": "1.3 &middot; 10<sup>-7</sup> m\u03A9",
    "superconducting_point": "----",
    "lattice_structure": "Strontium/Lattice_body_centered_cubic.svg.png",
    "crystal_structure": "Face-centered cubic",
    "grid": "a=6.080 \u212B",
    "attitude": "----",
    "debye_temperature": "-126.15 °C = -195.07 °F = 147 K",
    "space_group_name": "Fm_3m",
    "space_group_number": "225",
    "CAS_number": "CAS7440-24-6",
    "CID_number": "CID5359327",
    "RTEC_number": "----",
    "brinell_hardness": "---- MPa",
    "mohs_hardness": "1.5",
    "vickers_hardness": "----",
    "bulk_modulus": "---- GPa",
    "Young_modulus": "15.7 GPa",
    "liquid_density": "6.98 (g/cm<sup>3</sup>)",
    "molar_volume": "33.7 (cm<sup>3</sup>/mol)",
    "poisson_ratio": "0.28 &micro;",
    "shear_modulus": "6.1 GPa",
    "sound_speed": "---- m/s",
    "refractive_index": "----",
    "thermal_conductivity": "35 W/mK",
    "electronegative": "Pauling Scale 0.95",
    "electron_affinity": "5.03 KJ/mol",
    "radioactivity": "no",
    "half_life": "\u221E",
    "life_time": "\u221E",
    "barn": "1.2 b",
    "hazard_block": [
        {
            "red": "-"
        },
        {
            "yellow": "-"
        },
        {
            "blue": "-"
        },
        {
            "white": "-"
        }
    ],
    "fire_hazard": "----",
    "health_hazard":"----",
    "reactivity": "----",
    "specific": "----",
    "universe_contains": "4 &middot; 10<sup>-6</sup> %",
    "sun_contains": "5 &middot; 10<sup>-6</sup> %",
    "oceans_contains": "0.0008 %",
    "human_body_contains": "0.00046 %",
    "earth_crust_contains": "0.036 %",
    "meteorites_contains": "0.00086 %",
    "start_isotope_number": 73,
    "stop_isotope_number": 107,
    "half_life_number": ["25 ms", "50 ms", "88 ms", "7.89 s", "9 s", "159 s", "2.25 m", "106.3 m", "22.3 m", "25.36 days", "32.41 hours", "Stable", "64.853 days", "Stable", "Stable", "Stable", "Stable", "28.90 years", "9.36 hours", "2.66 hours", "7.423 m", "75.3 s", "23.90 s", "1.07 s", "429 ms", "653 ms", "269 ms", "202 ms", "118 ms", "69 ms", "50 ms", "30 ms", "20 ms", "392 ns", "395 ns"],
    "iso_weight": [72.96597, 74.95631, 74.94177, 75.94177, 76.93794, 77.93218, 79.92452, 80.92321, 81.91840, 82.917557, 83.913425, 84.912933, 85.909260, 86.908877, 87.905612, 88.907450, 89.907738, 90.910203, 91.911038, 92.914026, 93.915361, 94.919359, 95.921697, 96.926153, 97.928453, 98.93324, 99.93535, 100.94052, 101.94302, 102.94895, 103.95233, 104.95858]
}