{
    "strontium_Sr": {
        "allotropes": NaN,
        "alternative_name": NaN,
        "alternative_names": NaN,
        "appearance": "silvery white metallic; with a pale yellow tint",
        "at_t_(k)": 796.0,
        "atomic_number": 38,
        "atomic_radius": "empirical: 215 pm",
        "atomic_weight": "87.62(1)",
        "band_gap": NaN,
        "boiling_point": "1650 K (1377 \u00b0C, 2511 \u00b0F)",
        "brinell_hardness": NaN,
        "bulk_modulus": NaN,
        "cas_number": "7440-24-6",
        "color": NaN,
        "covalent_radius": "195\u00b110 pm",
        "critical_point": NaN,
        "crystal_structure": "face-centered cubic (fcc)",
        "curie_point": NaN,
        "density_at_stp": NaN,
        "density_near_rt": "2.64 g/cm3",
        "density_when_liquid_at_mp": NaN,
        "discovery": "William Cruickshank (1787)",
        "discovery_and_first_isolation": NaN,
        "electrical_resistivity": "132 n?\u00b7m (at 20 \u00b0C)",
        "electron_configuration": "[Kr] 5s2",
        "electronegativity": "Pauling scale: 0.95",
        "element_category": "alkaline earth metal",
        "first_isolation": "Humphry Davy (1808)",
        "group_block": "group 2 (alkaline earth metals), s-block",
        "heat_of_fusion": "7.43 kJ/mol",
        "heat_of_vaporisation": NaN,
        "heat_of_vaporization": "141 kJ/mol",
        "ionisation_energies": NaN,
        "ionization_energies": "1st: 549.5 kJ/mol, 2nd: 1064.2 kJ/mol, 3rd: 4138 kJ/mol",
        "iso": "iso\nNA\nhalf-life\nDM\nDE (MeV)\nDP\n\n\n82Sr\nsyn\n25.36 d\n?\n\u2013\n82Rb\n\n\n83Sr\nsyn\n1.35 d\n?\n\u2013\n83Rb\n\n\n?+\n1.23\n83Rb\n\n\n?\n0.76, 0.36\n\u2013\n\n\n84Sr\n0.56%\n84Sr is stable with 46 neutrons\n\n\n85Sr\nsyn\n64.84 d\n?\n\u2013\n85Rb\n\n\n?\n0.514D\n\u2013\n\n\n86Sr\n9.86%\n86Sr is stable with 48 neutrons\n\n\n87Sr\n7.00%\n87Sr is stable with 49 neutrons\n\n\n88Sr\n82.58%\n88Sr is stable with 50 neutrons\n\n\n89Sr\nsyn\n50.52 d\n?\n1.49\n89Rb\n\n\n??\n0.909D\n89Y\n\n\n90Sr\ntrace\n28.90 y\n??\n0.546\n90Y",
        "magnetic_ordering": "paramagnetic",
        "melting_point": "1050 K (777 \u00b0C, 1431 \u00b0F)",
        "mohs_hardness": "1.5",
        "molar_heat_capacity": "26.4 J/(mol\u00b7K)",
        "molar_volume": NaN,
        "name": "Strontium",
        "named_by": NaN,
        "naming": "after the mineral strontianite, itself named after Strontian, Scotland",
        "oxidation_states": "2, 1 (a strongly basic oxide)",
        "p_(pa)": "vapor pressure, P (Pa), 1, 10, 100, 1 k, 10 k, 100 k, at T (K), 796, 882, 990, 1139, 1345, 1646",
        "per_shell": "2, 8, 18, 8, 2",
        "period": 5,
        "phase": "solid",
        "poisson_ratio": "0.28",
        "prediction": NaN,
        "pronunciation": "/?str?n???m/ or /?str?nti?m/, STRON-sh(ee)-?m or STRON-tee-?m",
        "proposed_formal_name": NaN,
        "recognised_as_an_element_by": NaN,
        "recognized_as_a_distinct_element_by": NaN,
        "recognized_as_a_unique_metal_by": NaN,
        "recognized_as_an_element_by": NaN,
        "shear_modulus": "6.03 GPa",
        "speed_of_sound": NaN,
        "speed_of_sound_thin_rod": NaN,
        "sublimation_point": NaN,
        "symbol": "Sr",
        "tensile_strength": NaN,
        "thermal_conductivity": "35.4 W/(m\u00b7K)",
        "thermal_diffusivity": NaN,
        "thermal_expansion": "22.5 \u00b5m/(m\u00b7K) (at 25 \u00b0C)",
        "triple_point": NaN,
        "van_der_waals_radius": "249 pm",
        "vickers_hardness": NaN,
        "when_liquid_at_bp": NaN,
        "when_liquid_at_mp": "2.375 g/cm3",
        "youngs_modulus": "15.7 GPa"
    }
}