var element_data = {
    "wiki": "https://en.wikipedia.org/wiki/Bohrium",
    "video": "https://www.youtube.com/watch?v=okJnQIjELY4&list=PL7A1F4CF36C085DE1&index=107",
    "image": "Bohrium/bohrium.jpg",
    "species": "ALKALINE EARTH METALS",
    "symbol": "Bh",
    "latin_name": "Bohrium",
    "english_name": "Bohrium",
    "year_discovered": "1981",
    "discovered_by": "Peter Armbruster, Gottfried Munzenber",
    "Electron_shell": [
        {
            "K": 2
        },
        {
            "L": 8
        },
        {
            "M": 18
        },
        {
            "N": 32
        },
        {
            "O": 32
        },
        {
            "P": 13
        },
        {
            "Q": 2
        },
        {
            "R": 0
        }
    ],
    "epn_no": [
        {
            "electrons": 107,
        },
        {
            "protons": 107,
        },
        {
            "neutrons": 160
        }
    ],
    "atomic_number": 107,
    "atomic_weight": "262.1229 (g/mol)",
    "density": "37 (g/cm³)",
    "melting_point": "----",
    "boiling_point": "----",
    "valence_electrons": "7",
    "period": 7,
    "group": "II A",
    "block": "d-block",
    "emission_spectrum": "Barium/Ba.gif",
    "phase": "Solid",
    "phase_icon": "----",
    "fusion_heat": "---- (kJ &middot K)",
    "specific_heat": "---- J/(kg &middot; K)",
    "thermal_expansion": "---- &middot; 10<sup>-6</sup>°C<sup>-1</sup>)",
    "vaporization_heat": "---- kJ &middot; mol",
    "electron_configuration": "[Rn] 7s<sup>2</sup> 5f<sup>14</sup> 6d<sup>5</sup>",
    "oxidation_state": "+7",
    "ion_charge": "----",
    "ionization_potential": "---- ev",
    "atomic_radius": "128 (pm)",
    "covalent_radius": "---- (pm)",
    "van_der_waals_radius": "---- (pm)",
    "electrical_conductivity": "----",
    "electrical_type": "----", 
    "magnetic_type": "----",
    "volume_susceptibility": "-----",
    "mass_susceptibility": "-----",
    "molar_susceptibility": "----",
    "resistivity": "----",
    "superconducting_point": "----",
    "lattice_structure": "Barium/Hexagonal_close_packed.svg.png",
    "crystal_structure": "Hexagonal close-packed",
    "grid": "----",
    "attitude": "----",
    "debye_temperature": "----",
    "space_group_name": "----",
    "space_group_number": "----",
    "CAS_number": "CAS54037-14-8",
    "CID_number": "CID5359596",
    "RTEC_number": "----",
    "brinell_hardness": "----",
    "mohs_hardness": "----",
    "vickers_hardness": "----",
    "bulk_modulus": "----",
    "Young_modulus": "----",
    "liquid_density": "---- (g/cm<sup>3</sup>)",
    "molar_volume": "---- (cm<sup>3</sup>/mol)",
    "poisson_ratio": "----",
    "shear_modulus": "---- GPa",
    "sound_speed": "---- m/s",
    "refractive_index": "----",
    "thermal_conductivity": "---- W/mK",
    "electronegative": "Pauling Scale ----",
    "electron_affinity": "---- KJ/mol",
    "radioactivity": "yes",
    "half_life": "1.5 Hour",
    "life_time": "2.1 Hour",
    "barn": "0 b",
    "hazard_block": [
        {
            "red": "-"
        },
        {
            "yellow": "-"
        },
        {
            "blue": "-"
        },
        {
            "white": "-"
        }
    ],
    "fire_hazard": "----",
    "health_hazard":"----",
    "reactivity": "----",
    "specific": "----",
    "universe_contains": "---- %",
    "sun_contains": "---- %",
    "oceans_contains": "---- %",
    "human_body_contains": "---- %",
    "earth_crust_contains": "---- %",
    "meteorites_contains": "---- %",
    "start_isotope_number": 260,
    "stop_isotope_number": 275,
    "half_life_number": ["300 ms", "13 ms", "290 ms", "200 ms", "1.3 s", "900 s", "5 s", "22 s", "25 s", "40 s", "10 s", "90 m", "90 m", "40 m"],
    "iso_weight": [260.1219, 261.1216, 262.1228, 263.1230, 264.1246, 266.12694, 267.12765, 268.13069, 270.13362, 271.13518, 272.13803, 273.13962, 274.14244, 275.14425]
}