{
    "bohrium_Bh": {
        "allotropes": NaN,
        "alternative_name": NaN,
        "alternative_names": NaN,
        "appearance": NaN,
        "at_t_(k)": NaN,
        "atomic_number": 107,
        "atomic_radius": "empirical: 128 pm (predicted)",
        "atomic_weight": "[270]",
        "band_gap": NaN,
        "boiling_point": NaN,
        "brinell_hardness": NaN,
        "bulk_modulus": NaN,
        "cas_number": "54037-14-8",
        "color": NaN,
        "covalent_radius": "141 pm (estimated)",
        "critical_point": NaN,
        "crystal_structure": "hexagonal close-packed (hcp), (predicted)",
        "curie_point": NaN,
        "density_at_stp": NaN,
        "density_near_rt": "37.1 g/cm3 (predicted)",
        "density_when_liquid_at_mp": NaN,
        "discovery": "Gesellschaft f\u00fcr Schwerionenforschung (1981)",
        "discovery_and_first_isolation": NaN,
        "electrical_resistivity": NaN,
        "electron_configuration": "[Rn] 5f14 6d5 7s2 ",
        "electronegativity": NaN,
        "element_category": "transition metal",
        "first_isolation": NaN,
        "group_block": "group 7, d-block",
        "heat_of_fusion": NaN,
        "heat_of_vaporisation": NaN,
        "heat_of_vaporization": NaN,
        "ionisation_energies": NaN,
        "ionization_energies": "1st: 742.9 kJ/mol, 2nd: 1688.5 kJ/mol, 3rd: 2566.5 kJ/mol, (more) (all but first estimated)",
        "iso": "iso, NA, half-life, DM, DE (MeV), DP, 274Bh, syn, ~54 s, ?, 8.8, 270Db, 272Bh, syn, 9.8 s, ?, 9.02, 268Db, 271Bh, syn, 1.2 s, ?, 9.35, 267Db, 270Bh, syn, 61 s, ?, 8.93, 266Db, 267Bh, syn, 17 s, ?, 8.83, 263Db",
        "magnetic_ordering": NaN,
        "melting_point": NaN,
        "mohs_hardness": NaN,
        "molar_heat_capacity": NaN,
        "molar_volume": NaN,
        "name": "Bohrium",
        "named_by": NaN,
        "naming": "after Niels Bohr",
        "oxidation_states": "7, (5), (4), (3) (parenthesized oxidation states are predictions)",
        "p_(pa)": NaN,
        "per_shell": "2, 8, 18, 32, 32, 13, 2",
        "period": 7,
        "phase": "solid (predicted)",
        "poisson_ratio": NaN,
        "prediction": NaN,
        "pronunciation": "i/?b??ri?m/",
        "proposed_formal_name": NaN,
        "recognised_as_an_element_by": NaN,
        "recognized_as_a_distinct_element_by": NaN,
        "recognized_as_a_unique_metal_by": NaN,
        "recognized_as_an_element_by": NaN,
        "shear_modulus": NaN,
        "speed_of_sound": NaN,
        "speed_of_sound_thin_rod": NaN,
        "sublimation_point": NaN,
        "symbol": "Bh",
        "tensile_strength": NaN,
        "thermal_conductivity": NaN,
        "thermal_diffusivity": NaN,
        "thermal_expansion": NaN,
        "triple_point": NaN,
        "van_der_waals_radius": NaN,
        "vickers_hardness": NaN,
        "when_liquid_at_bp": NaN,
        "when_liquid_at_mp": NaN,
        "youngs_modulus": NaN
    }
}