{
    "americium_Am": {
        "allotropes": NaN,
        "alternative_name": NaN,
        "alternative_names": NaN,
        "appearance": "silvery white",
        "at_t_(k)": 1239.0,
        "atomic_number": 95,
        "atomic_radius": "empirical: 173 pm",
        "atomic_weight": "(243)",
        "band_gap": NaN,
        "boiling_point": "2880 K (2607 \u00b0C, 4725 \u00b0F) (calculated)",
        "brinell_hardness": NaN,
        "bulk_modulus": NaN,
        "cas_number": "7440-35-9",
        "color": NaN,
        "covalent_radius": "180\u00b16 pm",
        "critical_point": NaN,
        "crystal_structure": "double hexagonal close-packed (dhcp)",
        "curie_point": NaN,
        "density_at_stp": NaN,
        "density_near_rt": "12 g/cm3",
        "density_when_liquid_at_mp": NaN,
        "discovery": "Glenn T. Seaborg, Ralph A. James, Leon O. Morgan, Albert Ghiorso (1944)",
        "discovery_and_first_isolation": NaN,
        "electrical_resistivity": "0.69 \u00b5?\u00b7m",
        "electron_configuration": "[Rn] 5f7 7s2",
        "electronegativity": "Pauling scale: 1.3",
        "element_category": "actinide",
        "first_isolation": NaN,
        "group_block": "group n/a, f-block",
        "heat_of_fusion": "14.39 kJ/mol",
        "heat_of_vaporisation": NaN,
        "heat_of_vaporization": NaN,
        "ionisation_energies": NaN,
        "ionization_energies": "1st: 578 kJ/mol",
        "iso": "iso, NA, half-life, DM, DE (MeV), DP, 241Am, syn, 432.2 y, SF, \u2013, \u2013, ?, 5.486, 237Np, 242m1Am, syn, 141 y, IT, 0.049, 242Am, ?, 5.637, 238Np, SF, \u2013, \u2013, 243Am, syn, 7370 y, SF, \u2013, \u2013, ?, 5.275, 239Np",
        "magnetic_ordering": "paramagnetic",
        "melting_point": "1449 K (1176 \u00b0C, 2149 \u00b0F)",
        "mohs_hardness": NaN,
        "molar_heat_capacity": "62.7 J/(mol\u00b7K)",
        "molar_volume": NaN,
        "name": "Americium",
        "named_by": NaN,
        "naming": "after the Americas",
        "oxidation_states": "8, 7, 6, 5, 4, 3, 2 (an amphoteric oxide)",
        "p_(pa)": "vapor pressure, P (Pa), 1, 10, 100, 1 k, 10 k, 100 k, at T (K), 1239, 1356",
        "per_shell": "2, 8, 18, 32, 25, 8, 2",
        "period": 7,
        "phase": "solid",
        "poisson_ratio": NaN,
        "prediction": NaN,
        "pronunciation": "/?\u00e6m??r?si?m/, AM-?-RIS-ee-?m",
        "proposed_formal_name": NaN,
        "recognised_as_an_element_by": NaN,
        "recognized_as_a_distinct_element_by": NaN,
        "recognized_as_a_unique_metal_by": NaN,
        "recognized_as_an_element_by": NaN,
        "shear_modulus": NaN,
        "speed_of_sound": NaN,
        "speed_of_sound_thin_rod": NaN,
        "sublimation_point": NaN,
        "symbol": "Am",
        "tensile_strength": NaN,
        "thermal_conductivity": "10 W/(m\u00b7K)",
        "thermal_diffusivity": NaN,
        "thermal_expansion": NaN,
        "triple_point": NaN,
        "van_der_waals_radius": NaN,
        "vickers_hardness": NaN,
        "when_liquid_at_bp": NaN,
        "when_liquid_at_mp": NaN,
        "youngs_modulus": NaN
    }
}