{
    "californium_Cf": {
        "allotropes": NaN,
        "alternative_name": NaN,
        "alternative_names": NaN,
        "appearance": "silvery",
        "at_t_(k)": NaN,
        "atomic_number": 98,
        "atomic_radius": NaN,
        "atomic_weight": "(251)",
        "band_gap": NaN,
        "boiling_point": "1743 K (1470 \u00b0C, 2678 \u00b0F) (estimation)",
        "brinell_hardness": NaN,
        "bulk_modulus": NaN,
        "cas_number": "7440-71-3",
        "color": NaN,
        "covalent_radius": NaN,
        "critical_point": NaN,
        "crystal_structure": "double hexagonal close-packed (dhcp)",
        "curie_point": NaN,
        "density_at_stp": NaN,
        "density_near_rt": "15.1 g/cm3",
        "density_when_liquid_at_mp": NaN,
        "discovery": "Lawrence Berkeley National Laboratory (1950)",
        "discovery_and_first_isolation": NaN,
        "electrical_resistivity": NaN,
        "electron_configuration": "[Rn] 5f10 7s2",
        "electronegativity": "Pauling scale: 1.3",
        "element_category": "actinide",
        "first_isolation": NaN,
        "group_block": "group n/a, f-block",
        "heat_of_fusion": NaN,
        "heat_of_vaporisation": NaN,
        "heat_of_vaporization": NaN,
        "ionisation_energies": NaN,
        "ionization_energies": "1st: 608 kJ/mol",
        "iso": "iso, NA, half-life, DM, DE (MeV), DP, 248Cf, syn, 333.5 d, ? (100%), 6.369, 244Cm, SF (2.9\u00d710?3%), 0.0029, \u2013, 249Cf, syn, 351 y, ? (100%), 6.295, 245Cm, SF (5.0\u00d710?7%), 4.4\u00d710?7, \u2013, 250Cf, syn, 13.08 y, ? (99.92%), 6.129, 246Cm, SF (0.08%), 0.077, \u2013, 251Cf, syn, 898 y, ?, 6.172, 247Cm, 252Cf, syn, 2.645 y, ? (96.91%), 6.217, 248Cm, SF (3.09%), \u2013, \u2013, 253Cf, syn, 17.81 d, ?? (99.69%), 0.29, 253Es, ? (0.31%), 6.126, 249Cm, 254Cf, syn, 60.5 d, SF (99.69%), \u2013, \u2013, ? (0.31%), 5.930, 250Cm",
        "magnetic_ordering": NaN,
        "melting_point": "1173 K (900 \u00b0C, 1652 \u00b0F)",
        "mohs_hardness": "3\u20134",
        "molar_heat_capacity": NaN,
        "molar_volume": NaN,
        "name": "Californium",
        "named_by": NaN,
        "naming": "after California, where it was discovered",
        "oxidation_states": "2, 3, 4",
        "p_(pa)": NaN,
        "per_shell": "2, 8, 18, 32, 28, 8, 2",
        "period": 7,
        "phase": "solid",
        "poisson_ratio": NaN,
        "prediction": NaN,
        "pronunciation": "/?k\u00e6l??f??rni?m/, KAL-i-FOR-nee-?m",
        "proposed_formal_name": NaN,
        "recognised_as_an_element_by": NaN,
        "recognized_as_a_distinct_element_by": NaN,
        "recognized_as_a_unique_metal_by": NaN,
        "recognized_as_an_element_by": NaN,
        "shear_modulus": NaN,
        "speed_of_sound": NaN,
        "speed_of_sound_thin_rod": NaN,
        "sublimation_point": NaN,
        "symbol": "Cf",
        "tensile_strength": NaN,
        "thermal_conductivity": NaN,
        "thermal_diffusivity": NaN,
        "thermal_expansion": NaN,
        "triple_point": NaN,
        "van_der_waals_radius": NaN,
        "vickers_hardness": NaN,
        "when_liquid_at_bp": NaN,
        "when_liquid_at_mp": NaN,
        "youngs_modulus": NaN
    }
}