var element_data = {
    "wiki": "https://en.wikipedia.org/wiki/Neodymium",
    "video": "https://www.youtube.com/watch?v=PBbl-3_R3mk&list=PL7A1F4CF36C085DE1&index=60",
    "image": "Neodymium/neodymium.jpg",
    "species": "LANTHANOIDS",
    "symbol": "Nd",
    "latin_name": "Neodymium",
    "english_name": "Neodymium",
    "year_discovered": "1885",
    "discovered_by": "Carl Auer von Welsbach",
    "Electron_shell": [
        {
            "K": 2
        },
        {
            "L": 8
        },
        {
            "M": 18
        },
        {
            "N": 22
        },
        {
            "O": 8
        },
        {
            "P": 2
        },
        {
            "Q": 0
        },
        {
            "R": 0
        }
    ],
    "epn_no": [
        {
            "electrons": 60,
        },
        {
            "protons": 60,
        },
        {
            "neutrons": 84
        }
    ],
    "atomic_number": 60,
    "atomic_weight": "144.242 (g/mol)",
    "density": "7 (g/cm³)",
    "melting_point": "1010 °C = 1850.00 °F = 1283.15 K",
    "boiling_point": "3074 °C = 5565.20 °F = 3347.15 K",
    "valence_electrons": "3",
    "period": 6,
    "group": "II A",
    "block": "s-block",
    "emission_spectrum": "Neodymium/Nd.gif",
    "phase": "Solid",
    "phase_icon": "----",
    "fusion_heat": "7.1 (kJ &middot K)",
    "specific_heat": "190 J/(kg &middot; K)",
    "thermal_expansion": "9.6 &middot; 10<sup>-6</sup>°C<sup>-1</sup>)",
    "vaporization_heat": "285 kJ &middot; mol",
    "electron_configuration": "[Xe] 6s<sup>2</sup> 4f<sup>4</sup>",
    "oxidation_state": "+2, +3, +4",
    "ion_charge": "Nd<sup>3+</sup>",
    "ionization_potential": "6.31 eV",
    "atomic_radius": "182 (pm)",
    "covalent_radius": "---- (pm)",
    "van_der_waals_radius": "---- (pm)",
    "electrical_conductivity": "1.6 &middot; 10<sup>6</sup>",
    "electrical_type": "Conductor", 
    "magnetic_type": "Paramagnetic",
    "volume_susceptibility": "0.0033648",
    "mass_susceptibility": "0.00000048",
    "molar_susceptibility": "6.9235 &middot; 10<sup>-9</sup> m<sup>3</sup>/mol",
    "resistivity": "6.4 &middot; 10<sup>-7</sup> m\u03A9",
    "superconducting_point": "----",
    "lattice_structure": "Neodymium/Double-Hexagonal-Close-Packed.png",
    "crystal_structure": "Double hexagonal close-packed",
    "grid": "a=3.658 \u212B; c=11.80 \u212B",
    "attitude": "3.23",
    "debye_temperature": "----",
    "space_group_name": "----",
    "space_group_number": "----",
    "CAS_number": "CAS7440-00-8",
    "CID_number": "CID23934",
    "RTEC_number": "RTECSQO8575000",
    "brinell_hardness": "265-700 MPa",
    "mohs_hardness": "----",
    "vickers_hardness": "----",
    "bulk_modulus": "31.8 GPa",
    "Young_modulus": "41.4 GPa",
    "liquid_density": "6.89 (g/cm<sup>3</sup>)",
    "molar_volume": "20.6 (cm<sup>3</sup>/mol)",
    "poisson_ratio": "0.28 &micro;",
    "shear_modulus": "16 GPa",
    "sound_speed": "2330 m/s",
    "refractive_index": "----",
    "thermal_conductivity": "17 W/mK",
    "electronegative": "Pauling Scale 1.14",
    "electron_affinity": "50 KJ/mol",
    "radioactivity": "no",
    "half_life": "\u221E",
    "life_time": "\u221E",
    "barn": "49 b",
    "hazard_block": [
        {
            "red": "-"
        },
        {
            "yellow": "-"
        },
        {
            "blue": "-"
        },
        {
            "white": "-"
        }
    ],
    "fire_hazard": "----",
    "health_hazard":"----",
    "reactivity": "----",
    "specific": "----",
    "universe_contains": "---- %",
    "sun_contains": "3 &middot; 10<sup>-7</sup> %",
    "oceans_contains": "2.8 &middot; 10<sup>-6</sup> %",
    "human_body_contains": "---- %",
    "earth_crust_contains": "0.0033 %",
    "meteorites_contains": "0.00005 %",
    "start_isotope_number": 124,
    "stop_isotope_number": 129,
    "half_life_number": ["500 ms", " 600 ms", "1 s", "1.8 s", "5 s", "4.9 s"],
    "iso_weight": [123.95223, 124.94888, 125.94322, 126.94050, 127.93439, 128.93319]
}