{
    "neodymium_Nd": {
        "allotropes": NaN,
        "alternative_name": NaN,
        "alternative_names": NaN,
        "appearance": "silvery white",
        "at_t_(k)": 1595.0,
        "atomic_number": 60,
        "atomic_radius": "empirical: 181 pm",
        "atomic_weight": "144.242(3)",
        "band_gap": NaN,
        "boiling_point": "3347 K (3074 \u00b0C, 5565 \u00b0F)",
        "brinell_hardness": "265\u2013700 MPa",
        "bulk_modulus": "? form: 31.8 GPa",
        "cas_number": "7440-00-8",
        "color": NaN,
        "covalent_radius": "201\u00b16 pm",
        "critical_point": NaN,
        "crystal_structure": "double hexagonal close-packed (dhcp)",
        "curie_point": NaN,
        "density_at_stp": NaN,
        "density_near_rt": "7.01 g/cm3",
        "density_when_liquid_at_mp": NaN,
        "discovery": "Carl Auer von Welsbach (1885)",
        "discovery_and_first_isolation": NaN,
        "electrical_resistivity": "?, poly: 643 n?\u00b7m",
        "electron_configuration": "[Xe] 4f4 6s2",
        "electronegativity": "Pauling scale: 1.14",
        "element_category": "lanthanide",
        "first_isolation": NaN,
        "group_block": "group n/a, f-block",
        "heat_of_fusion": "7.14 kJ/mol",
        "heat_of_vaporisation": NaN,
        "heat_of_vaporization": "289 kJ/mol",
        "ionisation_energies": NaN,
        "ionization_energies": "1st: 533.1 kJ/mol, 2nd: 1040 kJ/mol, 3rd: 2130 kJ/mol",
        "iso": "iso, NA, half-life, DM, DE (MeV), DP, 142Nd, 27.2%, 142Nd is stable with 82 neutrons, 143Nd, 12.2%, 143Nd is stable with 83 neutrons, 144Nd, 23.8%, 2.29\u00d71015 y, ?, 1.905, 140Ce, 145Nd, 8.3%, 145Nd is stable with 85 neutrons, 146Nd, 17.2%, 146Nd is stable with 86 neutrons, 148Nd, 5.8%, 148Nd is stable with 88 neutrons, 150Nd, 5.6%, 6.7\u00d71018 y, ????, 3.367, 150Sm",
        "magnetic_ordering": "paramagnetic, antiferromagnetic below 20 K",
        "melting_point": "1297 K (1024 \u00b0C, 1875 \u00b0F)",
        "mohs_hardness": NaN,
        "molar_heat_capacity": "27.45 J/(mol\u00b7K)",
        "molar_volume": NaN,
        "name": "Neodymium",
        "named_by": NaN,
        "naming": NaN,
        "oxidation_states": "+4, +3, +2 (a mildly basic oxide)",
        "p_(pa)": "vapor pressure, P (Pa), 1, 10, 100, 1 k, 10 k, 100 k, at T (K), 1595, 1774, 1998, (2296), (2715), (3336)",
        "per_shell": "2, 8, 18, 22, 8, 2",
        "period": 6,
        "phase": "solid",
        "poisson_ratio": "? form: 0.281",
        "prediction": NaN,
        "pronunciation": "/?ni?.o??d?mi?m/, NEE-o-DIM-ee-?m",
        "proposed_formal_name": NaN,
        "recognised_as_an_element_by": NaN,
        "recognized_as_a_distinct_element_by": NaN,
        "recognized_as_a_unique_metal_by": NaN,
        "recognized_as_an_element_by": NaN,
        "shear_modulus": "? form: 16.3 GPa",
        "speed_of_sound": NaN,
        "speed_of_sound_thin_rod": "2330 m/s (at 20 \u00b0C)",
        "sublimation_point": NaN,
        "symbol": "Nd",
        "tensile_strength": NaN,
        "thermal_conductivity": "16.5 W/(m\u00b7K)",
        "thermal_diffusivity": NaN,
        "thermal_expansion": "?, poly: 9.6 \u00b5m/(m\u00b7K) (at r.t.)",
        "triple_point": NaN,
        "van_der_waals_radius": NaN,
        "vickers_hardness": "345\u2013745 MPa",
        "when_liquid_at_bp": NaN,
        "when_liquid_at_mp": "6.89 g/cm3",
        "youngs_modulus": "? form: 41.4 GPa"
    }
}