{
    "cerium_Ce": {
        "allotropes": NaN,
        "alternative_name": NaN,
        "alternative_names": NaN,
        "appearance": "silvery white",
        "at_t_(k)": 1992.0,
        "atomic_number": 58,
        "atomic_radius": "empirical: 181.8 pm",
        "atomic_weight": "140.116(1)",
        "band_gap": NaN,
        "boiling_point": "3716 K (3443 \u00b0C, 6229 \u00b0F)",
        "brinell_hardness": "186\u2013412 MPa",
        "bulk_modulus": "? form: 21.5 GPa",
        "cas_number": "7440-45-1",
        "color": NaN,
        "covalent_radius": "204\u00b19 pm",
        "critical_point": NaN,
        "crystal_structure": "face-centred cubic (fcc), ?-Ce",
        "curie_point": NaN,
        "density_at_stp": NaN,
        "density_near_rt": "6.770 g/cm3",
        "density_when_liquid_at_mp": NaN,
        "discovery": "Martin Heinrich Klaproth, J\u00f6ns Jakob Berzelius, Wilhelm Hisinger (1803)",
        "discovery_and_first_isolation": NaN,
        "electrical_resistivity": "?, poly: 828 n?\u00b7m (at r.t.)",
        "electron_configuration": "[Xe] 4f1 5d1 6s2",
        "electronegativity": "Pauling scale: 1.12",
        "element_category": "lanthanide",
        "first_isolation": "Carl Gustaf Mosander (1839)",
        "group_block": "group n/a, f-block",
        "heat_of_fusion": "5.46 kJ/mol",
        "heat_of_vaporisation": "398 kJ/mol",
        "heat_of_vaporization": NaN,
        "ionisation_energies": "1st: 534.4 kJ/mol, 2nd: 1050 kJ/mol, 3rd: 1949 kJ/mol, (more)",
        "ionization_energies": NaN,
        "iso": "iso, NA, half-life, DM, DE (MeV), DP, 134Ce, syn, 3.16 d, ?, 0.500, 134La, 136Ce, 0.186%, 136Ce is stable with 78 neutrons, 138Ce, 0.251%, 138Ce is stable with 80 neutrons, 139Ce, syn, 137.640 d, ?, 0.278, 139La, 140Ce, 88.449%, 140Ce is stable with 82 neutrons, 141Ce, syn, 32.501 d, ??, 0.581, 141Pr, 142Ce, 11.114%, 142Ce is stable with 84 neutrons, 143Ce, syn, 33.039 d, ??, 1.462, 143Pr, 144Ce, syn, 284.893 d, ??, 0.319, 144Pr",
        "magnetic_ordering": "paramagnetic",
        "melting_point": "1068 K (795 \u00b0C, 1463 \u00b0F)",
        "mohs_hardness": "2.5",
        "molar_heat_capacity": "26.94 J/(mol\u00b7K)",
        "molar_volume": NaN,
        "name": "Cerium",
        "named_by": NaN,
        "naming": "after dwarf planet Ceres, itself named after Roman deity of agriculture Ceres",
        "oxidation_states": "4, 3, 2, 1 (a mildly basic oxide)",
        "p_(pa)": "vapour pressure, P (Pa), 1, 10, 100, 1 k, 10 k, 100 k, at T (K), 1992, 2194, 2442, 2754, 3159, 3705",
        "per_shell": "2, 8, 18, 19, 9, 2",
        "period": 6,
        "phase": "solid",
        "poisson_ratio": "? form: 0.24",
        "prediction": NaN,
        "pronunciation": "/?s??ri?m/",
        "proposed_formal_name": NaN,
        "recognised_as_an_element_by": NaN,
        "recognized_as_a_distinct_element_by": NaN,
        "recognized_as_a_unique_metal_by": NaN,
        "recognized_as_an_element_by": NaN,
        "shear_modulus": "? form: 13.5 GPa",
        "speed_of_sound": NaN,
        "speed_of_sound_thin_rod": "2100 m/s (at 20 \u00b0C)",
        "sublimation_point": NaN,
        "symbol": "Ce",
        "tensile_strength": NaN,
        "thermal_conductivity": "11.3 W/(m\u00b7K)",
        "thermal_diffusivity": NaN,
        "thermal_expansion": "?, poly: 6.3 \u00b5m/(m\u00b7K) (at r.t.)",
        "triple_point": NaN,
        "van_der_waals_radius": NaN,
        "vickers_hardness": "210\u2013470 MPa",
        "when_liquid_at_bp": NaN,
        "when_liquid_at_mp": "6.55 g/cm3",
        "youngs_modulus": "? form: 33.6 GPa"
    }
}