{
    "argon_Ar": {
        "allotropes": NaN,
        "alternative_name": NaN,
        "alternative_names": NaN,
        "appearance": "colorless gas exhibiting a lilac/violet glow when placed in a high voltage electric field",
        "at_t_(k)": NaN,
        "atomic_number": 18,
        "atomic_radius": NaN,
        "atomic_weight": "39.948(1)",
        "band_gap": NaN,
        "boiling_point": "87.302 K (?185.848 \u00b0C, ?302.526 \u00b0F)",
        "brinell_hardness": NaN,
        "bulk_modulus": NaN,
        "cas_number": "7440-37-1",
        "color": NaN,
        "covalent_radius": "106\u00b110 pm",
        "critical_point": "150.687 K, 4.863 MPa",
        "crystal_structure": "face-centered cubic (fcc)",
        "curie_point": NaN,
        "density_at_stp": "1.784 g/L",
        "density_near_rt": NaN,
        "density_when_liquid_at_mp": NaN,
        "discovery": NaN,
        "discovery_and_first_isolation": "Lord Rayleigh and William Ramsay (1894)",
        "electrical_resistivity": NaN,
        "electron_configuration": "[Ne] 3s2 3p6",
        "electronegativity": "Pauling scale: no data",
        "element_category": "noble gas",
        "first_isolation": NaN,
        "group_block": "group 18 (noble gases), p-block",
        "heat_of_fusion": "1.18 kJ/mol",
        "heat_of_vaporisation": NaN,
        "heat_of_vaporization": "6.53 kJ/mol",
        "ionisation_energies": NaN,
        "ionization_energies": "1st: 1520.6 kJ/mol, 2nd: 2665.8 kJ/mol, 3rd: 3931 kJ/mol, (more)",
        "iso": "iso, NA, half-life, DM, DE (MeV), DP, 36Ar, 0.334%, 36Ar is stable with 18 neutrons, 37Ar, syn, 35 d, ?, 0.813, 37Cl, 38Ar, 0.063%, 38Ar is stable with 20 neutrons, 39Ar, trace, 269 y, ??, 0.565, 39K, 40Ar, 99.604%, 40Ar is stable with 22 neutrons, 41Ar, syn, 109.34 min, ??, 2.49, 41K, 42Ar, syn, 32.9 y, ??, 0.600, 42K",
        "magnetic_ordering": "diamagnetic",
        "melting_point": "83.81 K (?189.34 \u00b0C, ?308.81 \u00b0F)",
        "mohs_hardness": NaN,
        "molar_heat_capacity": "20.85 J/(mol\u00b7K)",
        "molar_volume": NaN,
        "name": "Argon",
        "named_by": NaN,
        "naming": NaN,
        "oxidation_states": "0",
        "p_(pa)": "vapor pressure, P (Pa), 1, 10, 100, 1 k, 10 k, 100 k, at T (K), 47, 53, 61, 71, 87",
        "per_shell": "2, 8, 8",
        "period": 3,
        "phase": "gas",
        "poisson_ratio": NaN,
        "prediction": NaN,
        "pronunciation": "/???r??n/, AR-gon",
        "proposed_formal_name": NaN,
        "recognised_as_an_element_by": NaN,
        "recognized_as_a_distinct_element_by": NaN,
        "recognized_as_a_unique_metal_by": NaN,
        "recognized_as_an_element_by": NaN,
        "shear_modulus": NaN,
        "speed_of_sound": "323 m/s (gas, at 27 \u00b0C)",
        "speed_of_sound_thin_rod": NaN,
        "sublimation_point": NaN,
        "symbol": "Ar",
        "tensile_strength": NaN,
        "thermal_conductivity": "17.72\u00d710?3  W/(m\u00b7K)",
        "thermal_diffusivity": NaN,
        "thermal_expansion": NaN,
        "triple_point": "83.8058 K, 68.89 kPa",
        "van_der_waals_radius": "188 pm",
        "vickers_hardness": NaN,
        "when_liquid_at_bp": "1.3954 g/cm3",
        "when_liquid_at_mp": NaN,
        "youngs_modulus": NaN
    }
}