var element_data = {
    "wiki": "https://en.wikipedia.org/wiki/Argon",
    "video": "https://www.youtube.com/watch?v=nrHVOFG2V-c&list=PL7A1F4CF36C085DE1&index=18",
    "image": "Argon/argon.jpg",
    "species": "noble gas",
    "symbol": "Ar",
    "latin_name": "Argon",
    "english_name": "Argon",
    "year_discovered": "1894",
    "discovered_by": "Sir William Ramsay",
    "Electron_shell": [
        {
            "K": 2
        },
        {
            "L": 8
        },
        {
            "M": 8
        },
        {
            "N": 0
        },
        {
            "O": 0
        },
        {
            "P": 0
        },
        {
            "Q": 0
        },
        {
            "R": 0
        }
    ],
    "epn_no": [
        {
            "electrons": 18,
        },
        {
            "protons": 18,
        },
        {
            "neutrons": 22
        }
    ],
    "atomic_number": 18,
    "atomic_weight": "39.948 (g/mol)",
    "density": "0.001784 (g/cm³)",
    "melting_point": "-189.34 °C = -308.81 °F = 83.81 K",
    "boiling_point": "-185.85 °C = -302.53 °F = 87.30 K",
    "valence_electrons": "0",
    "period": 3,
    "group": "VIII A",
    "block": "p-block",
    "emission_spectrum": "Argon/Ar.gif",
    "phase": "Gas",
    "phase_icon": "----",
    "fusion_heat": "1.18 (kJ &middot K)",
    "specific_heat": "520.33 J/(kg &middot; K)",
    "thermal_expansion": "----",
    "vaporization_heat": "6.5 kJ &middot; mol",
    "electron_configuration": "[Kr] 3s<sup>2</sup>3p<sup>6</sup>",
    "oxidation_state": "----",
    "ion_charge": "----",
    "ionization_potential": "15.68 ev",
    "atomic_radius": "71 (pm)",
    "covalent_radius": "97 (pm)",
    "van_der_waals_radius": "188 (pm)",
    "electrical_conductivity": "----",
    "electrical_type": "----", 
    "magnetic_type": "Diamagnetic",
    "volume_susceptibility": "-0.0000000107",
    "mass_susceptibility": "-0.000000006",
    "molar_susceptibility": "-2.4 &middot; 10<sup>-10</sup> m<sup>3</sup>/mol",
    "resistivity": "---- m\u03A9",
    "superconducting_point": "----",
    "lattice_structure": "Argon/Cubic-face-centered.svg.png",
    "crystal_structure": "Face-centered cubic",
    "grid": "a=5.260 \u212B",
    "attitude": "----",
    "debye_temperature": "-188.15 °C = -306.67 °F = 85 K",
    "space_group_name": "R_3m",
    "space_group_number": "166",
    "CAS_number": "CAS7440-37-1",
    "CID_number": "CID23968",
    "RTEC_number": "RTECSCF2300000",
    "brinell_hardness": "---- MPa",
    "mohs_hardness": "----",
    "vickers_hardness": "----",
    "bulk_modulus": "---- GPa",
    "Young_modulus": "---- GPa",
    "liquid_density": "----",
    "molar_volume": "24.2 (cm<sup>3</sup>/mol)",
    "poisson_ratio": "----",
    "shear_modulus": "---- GPa",
    "sound_speed": "319 m/s",
    "refractive_index": "1.000281",
    "thermal_conductivity": "0.01772 W/mK",
    "electronegative": "Pauling Scale 2.05",
    "electron_affinity": "0 KJ/mol",
    "radioactivity": "no",
    "half_life": "\u221E",
    "life_time": "\u221E",
    "barn": "0.65 b",
    "hazard_block": [
        {
            "red": "-"
        },
        {
            "yellow": "-"
        },
        {
            "blue": "-"
        },
        {
            "white": "-"
        }
    ],
    "fire_hazard": "----",
    "health_hazard": "----",
    "reactivity": "----",
    "specific": "----",
    "universe_contains": "0.02%",
    "sun_contains": "0.007%",
    "oceans_contains": "0.000045%",
    "human_body_contains": "----",
    "earth_crust_contains": "0.00015 %",
    "meteorites_contains": "---- %",
    "start_isotope_number": 30,
    "stop_isotope_number": 40,
    "half_life_number": ["20ns", "14.4 ms", "98 ms", "173 ms", "845 ms", "1.775 s", "stable", "35.04 days", "stable", "269 years", "stable", "109.61 m", "32.9 years", "5.37 m", "11.87 m", "21.48 s", "8.4 s", "580 ms", "500 ms", "170 ms", "85 ms"],
    "iso_weight": [30.02156, 31.01211, 31.997, 32.98992, 33.98027, 34.97525, 35.96754, 36.96677, 37.9627, 38.964313, 39.962383, 40.96450, 41.963046, 42.965636, 43.96492, 43.96492, 45.96809, 46.97219, 47.97454, 48.98052, 49.98443]
}