var element_data = {
    "wiki": "https://en.wikipedia.org/wiki/Gallium",
    "video": "https://www.youtube.com/watch?v=N6ccRvKKwZQ&list=PL7A1F4CF36C085DE1&index=31",
    "image": "Gallium/gallium.jpg",
    "species": "POST-TRANSITION METAL",
    "symbol": "Ga",
    "latin_name": "Gallium",
    "english_name": "Gallium",
    "year_discovered": "1875",
    "discovered_by": "Paul Emile Lecoq de Boisbaudran",
    "Electron_shell": [
        {
            "K": 2
        },
        {
            "L": 8
        },
        {
            "M": 18
        },
        {
            "N": 3
        },
        {
            "O": 0
        },
        {
            "P": 0
        },
        {
            "Q": 0
        },
        {
            "R": 0
        }
    ],
    "epn_no": [
        {
            "electrons": 31,
        },
        {
            "protons": 31,
        },
        {
            "neutrons": 39
        }
    ],
    "atomic_number": 31,
    "atomic_weight": "69.723 (g/mol)",
    "density": "5.91 (g/cm³)",
    "melting_point": "29.8 °C = 85.64 °F = 302.95 K",
    "boiling_point": "2203 °C = 3997.40 °F = 2476.15 K",
    "valence_electrons": "3",
    "period": 4,
    "group": "III A",
    "block": "p-block",
    "emission_spectrum": "Gallium/Ga.gif",
    "phase": "Solid",
    "phase_icon": "----",
    "fusion_heat": "5.59 (kJ &middot K)",
    "specific_heat": "371 J/(kg &middot; K)",
    "thermal_expansion": "18 &middot; 10<sup>-6</sup>°C<sup>-1</sup>)",
    "vaporization_heat": "256 kJ &middot; mol",
    "electron_configuration": "[Ar] 3d<sup>10</sup>4s<sup>2</sup>4p<sup>1</sup>",
    "oxidation_state": "-5, -4, -2, -1, +1, +2, +3",
    "ion_charge": "Ga<sup>3+</sup>",
    "ionization_potential": "5.97 ev",
    "atomic_radius": "141 (pm)",
    "covalent_radius": "126 (pm)",
    "van_der_waals_radius": "187 (pm)",
    "electrical_conductivity": "7.1 &middot; 10<sup>6</sup>",
    "electrical_type": "Conductor", 
    "magnetic_type": "Diamagnetic",
    "volume_susceptibility": "-0.0000177",
    "mass_susceptibility": "-0.000000003",
    "molar_susceptibility": "-2.09 &middot; 10<sup>-9</sup> m<sup>3</sup>/mol",
    "resistivity": "1.4 &middot; 10<sup>-7</sup> m\u03A9",
    "superconducting_point": "-272.07 °C = -457.72 °F = 1.083 K",
    "lattice_structure": "Gallium/Orthorhombic.svg.png",
    "crystal_structure": "Orthorhombic",
    "grid": "a=4.519 \u212B; b=7.658 \u212B; c=4.526 \u212B",
    "attitude": "----",
    "debye_temperature": "-33.15 °C = -27.67 °F = 240 K",
    "space_group_name": "Cmca",
    "space_group_number": "64",
    "CAS_number": "CAS7440-55-3",
    "CID_number": "CID5360835",
    "RTEC_number": "RTECSLW8600000",
    "brinell_hardness": "56.8-68.7 MPa",
    "mohs_hardness": "1.5",
    "vickers_hardness": "----",
    "bulk_modulus": "---- GPa",
    "Young_modulus": "9.8 GPa",
    "liquid_density": "6.095 (g/cm<sup>3</sup>)",
    "molar_volume": "11.8 (cm<sup>3</sup>/mol)",
    "poisson_ratio": "----",
    "shear_modulus": "---- GPa",
    "sound_speed": "2740 m/s",
    "refractive_index": "----",
    "thermal_conductivity": "29 W/mK",
    "electronegative": "Pauling Scale 1.81",
    "electron_affinity": "28.9 KJ/mol",
    "radioactivity": "no",
    "half_life": "\u221E",
    "life_time": "\u221E",
    "barn": "2.9 b",
    "hazard_block": [
        {
            "red": "0"
        },
        {
            "yellow": "0"
        },
        {
            "blue": "1"
        },
        {
            "white": "-"
        }
    ],
    "fire_hazard": "Will not burn",
    "health_hazard":"Slightly hazardous",
    "reactivity": "stable",
    "specific": "----",
    "universe_contains": "1 &middot; 10<sup>-6</sup> %",
    "sun_contains": "4 &middot; 10<sup>-6</sup> %",
    "oceans_contains": "3 &middot; 10<sup>-9</sup> %",
    "human_body_contains": "---- %",
    "earth_crust_contains": "0.0019 %",
    "meteorites_contains": "0.00076 %",
    "start_isotope_number": 56,
    "stop_isotope_number": 64,
    "half_life_number": ["--", "--", "--", "--", "70 ms", "168 ms", "166.18 ms", "32.4 s", "2.627 m"],
    "iso_weight": [55.99491, 56.98293, 57.97425, 58.963, 59.957, 60.949, 31.944, 62.939, 61.936]
}