{
    "gallium_Ga": {
        "allotropes": NaN,
        "alternative_name": NaN,
        "alternative_names": NaN,
        "appearance": "silvery blue",
        "at_t_(k)": 1310.0,
        "atomic_number": 31,
        "atomic_radius": "empirical: 135 pm",
        "atomic_weight": "69.723(1)",
        "band_gap": NaN,
        "boiling_point": "2673 K (2400 \u00b0C, 4352 \u00b0F)",
        "brinell_hardness": "56.8\u201368.7 MPa",
        "bulk_modulus": NaN,
        "cas_number": "7440-55-3",
        "color": NaN,
        "covalent_radius": "122\u00b13 pm",
        "critical_point": NaN,
        "crystal_structure": "orthorhombic",
        "curie_point": NaN,
        "density_at_stp": NaN,
        "density_near_rt": "5.91 g/cm3",
        "density_when_liquid_at_mp": NaN,
        "discovery": NaN,
        "discovery_and_first_isolation": "Lecoq de Boisbaudran (1875)",
        "electrical_resistivity": "270 n?\u00b7m (at 20 \u00b0C)",
        "electron_configuration": "[Ar] 3d10 4s2 4p1",
        "electronegativity": "Pauling scale: 1.81",
        "element_category": "post-transition metal",
        "first_isolation": NaN,
        "group_block": "group 13, p-block",
        "heat_of_fusion": "5.59 kJ/mol",
        "heat_of_vaporisation": NaN,
        "heat_of_vaporization": "256 kJ/mol",
        "ionisation_energies": NaN,
        "ionization_energies": "1st: 578.8 kJ/mol, 2nd: 1979.3 kJ/mol, 3rd: 2963 kJ/mol, (more)",
        "iso": "iso, NA, half-life, DM, DE (MeV), DP, 66Ga, syn, 9.5 h, ?+, 4.153, 66Zn, 67Ga, syn, 3.261 d, ?, 1.001, 67Zn, 68Ga, syn, 1.13 h, ?+, 1.899, 68Zn, 69Ga, 60.11%, 69Ga is stable with 38 neutrons, 70Ga, syn, 21.1 min, ??, 1.653, 70Ge, ?, 0.655, 70Zn, 71Ga, 39.89%, 71Ga is stable with 40 neutrons, 72Ga, syn, 14.10 h, ??, 3.997, 72Ge, 73Ga, syn, 4.9 h, ??, 1.598, 73Ge",
        "magnetic_ordering": "diamagnetic",
        "melting_point": "302.9146 K (29.7646 \u00b0C, 85.5763 \u00b0F)",
        "mohs_hardness": "1.5",
        "molar_heat_capacity": "25.86 J/(mol\u00b7K)",
        "molar_volume": NaN,
        "name": "Gallium",
        "named_by": NaN,
        "naming": "after Gallia (Latin for: France), homeland of the discoverer",
        "oxidation_states": "3, 2, 1, ?1, ?2, ?4, ?5 (an amphoteric oxide)",
        "p_(pa)": "vapor pressure, P (Pa), 1, 10, 100, 1 k, 10 k, 100 k, at T (K), 1310, 1448, 1620, 1838, 2125, 2518",
        "per_shell": "2, 8, 18, 3",
        "period": 4,
        "phase": "solid",
        "poisson_ratio": "0.47",
        "prediction": "Dmitri Mendeleev (1871)",
        "pronunciation": "/??\u00e6li?m/, GAL-ee-?m",
        "proposed_formal_name": NaN,
        "recognised_as_an_element_by": NaN,
        "recognized_as_a_distinct_element_by": NaN,
        "recognized_as_a_unique_metal_by": NaN,
        "recognized_as_an_element_by": NaN,
        "shear_modulus": NaN,
        "speed_of_sound": NaN,
        "speed_of_sound_thin_rod": "2740 m/s (at 20 \u00b0C)",
        "sublimation_point": NaN,
        "symbol": "Ga",
        "tensile_strength": NaN,
        "thermal_conductivity": "40.6 W/(m\u00b7K)",
        "thermal_diffusivity": NaN,
        "thermal_expansion": "18 \u00b5m/(m\u00b7K) (at 25 \u00b0C)",
        "triple_point": NaN,
        "van_der_waals_radius": "187 pm",
        "vickers_hardness": NaN,
        "when_liquid_at_bp": NaN,
        "when_liquid_at_mp": "6.095 g/cm3",
        "youngs_modulus": "9.8 GPa"
    }
}