{
    "rhodium_Rh": {
        "allotropes": NaN,
        "alternative_name": NaN,
        "alternative_names": NaN,
        "appearance": "silvery white metallic",
        "at_t_(k)": 2288.0,
        "atomic_number": 45,
        "atomic_radius": "empirical: 134 pm",
        "atomic_weight": "102.90550(2)",
        "band_gap": NaN,
        "boiling_point": "3968 K (3695 \u00b0C, 6683 \u00b0F)",
        "brinell_hardness": "980\u20131350 MPa",
        "bulk_modulus": "275 GPa",
        "cas_number": "7440-16-6",
        "color": NaN,
        "covalent_radius": "142\u00b17 pm",
        "critical_point": NaN,
        "crystal_structure": "face-centered cubic (fcc)",
        "curie_point": NaN,
        "density_at_stp": NaN,
        "density_near_rt": "12.41 g/cm3",
        "density_when_liquid_at_mp": NaN,
        "discovery": NaN,
        "discovery_and_first_isolation": "William Hyde Wollaston (1804)",
        "electrical_resistivity": "43.3 n?\u00b7m (at 0 \u00b0C)",
        "electron_configuration": "[Kr] 4d8 5s1",
        "electronegativity": "Pauling scale: 2.28",
        "element_category": "transition metal",
        "first_isolation": NaN,
        "group_block": "group 9, d-block",
        "heat_of_fusion": "26.59 kJ/mol",
        "heat_of_vaporisation": NaN,
        "heat_of_vaporization": "493 kJ/mol",
        "ionisation_energies": NaN,
        "ionization_energies": "1st: 719.7 kJ/mol, 2nd: 1740 kJ/mol, 3rd: 2997 kJ/mol",
        "iso": "iso\nNA\nhalf-life\nDM\nDE (MeV)\nDP\n\n\n99Rh\nsyn\n16.1 d\n?\n\u2013\n99Ru\n\n\n?\n0.089, 0.353,\n0.528\n\u2013\n\n\n101mRh\nsyn\n4.34 d\n?\n\u2013\n101Ru\n\n\nIT\n0.157\n101Rh\n\n\n?\n0.306, 0.545\n\u2013\n\n\n101Rh\nsyn\n3.3 y\n?\n\u2013\n101Ru\n\n\n?\n0.127, 0.198,\n0.325\n\u2013\n\n\n102mRh\nsyn\n3.7 y\n?\n\u2013\n102Ru\n\n\n?\n0.475, 0.631,\n0.697, 1.046\n\u2013\n\n\n102Rh\nsyn\n207 d\n?\n\u2013\n102Ru\n\n\n?+\n0.826, 1.301\n102Ru\n\n\n??\n1.151\n102Pd\n\n\n?\n0.475, 0.628\n\u2013\n\n\n103Rh\n100%\n103Rh is stable with 58 neutrons\n\n\n105Rh\nsyn\n35.36 h\n??\n0.247, 0.260,\n0.566\n105Pd\n\n\n?\n0.306, 0.318\n\u2013",
        "magnetic_ordering": "paramagnetic",
        "melting_point": "2237 K (1964 \u00b0C, 3567 \u00b0F)",
        "mohs_hardness": "6",
        "molar_heat_capacity": "24.98 J/(mol\u00b7K)",
        "molar_volume": NaN,
        "name": "Rhodium",
        "named_by": NaN,
        "naming": NaN,
        "oxidation_states": "6, 5, 4, 3, 2, 1, ?1, ?3 (an amphoteric oxide)",
        "p_(pa)": "vapor pressure, P (Pa), 1, 10, 100, 1 k, 10 k, 100 k, at T (K), 2288, 2496, 2749, 3063, 3405, 3997",
        "per_shell": "2, 8, 18, 16, 1",
        "period": 5,
        "phase": "solid",
        "poisson_ratio": "0.26",
        "prediction": NaN,
        "pronunciation": "/?ro?di?m/, ROH-dee-?m",
        "proposed_formal_name": NaN,
        "recognised_as_an_element_by": NaN,
        "recognized_as_a_distinct_element_by": NaN,
        "recognized_as_a_unique_metal_by": NaN,
        "recognized_as_an_element_by": NaN,
        "shear_modulus": "150 GPa",
        "speed_of_sound": NaN,
        "speed_of_sound_thin_rod": "4700 m/s (at 20 \u00b0C)",
        "sublimation_point": NaN,
        "symbol": "Rh",
        "tensile_strength": NaN,
        "thermal_conductivity": "150 W/(m\u00b7K)",
        "thermal_diffusivity": NaN,
        "thermal_expansion": "8.2 \u00b5m/(m\u00b7K) (at 25 \u00b0C)",
        "triple_point": NaN,
        "van_der_waals_radius": NaN,
        "vickers_hardness": "1100\u20138000 MPa",
        "when_liquid_at_bp": NaN,
        "when_liquid_at_mp": "10.7 g/cm3",
        "youngs_modulus": "380 GPa"
    }
}