{
    "silicon_Si": {
        "allotropes": NaN,
        "alternative_name": NaN,
        "alternative_names": NaN,
        "appearance": "crystalline, reflective with bluish-tinged faces",
        "at_t_(k)": 1908.0,
        "atomic_number": 14,
        "atomic_radius": "empirical: 111 pm",
        "atomic_weight": "28.085 (28.084\u201328.086)",
        "band_gap": "1.12 eV (at 300 K)",
        "boiling_point": "3538 K (3265 \u00b0C, 5909 \u00b0F)",
        "brinell_hardness": NaN,
        "bulk_modulus": "97.6 GPa",
        "cas_number": "7440-21-3",
        "color": NaN,
        "covalent_radius": "111 pm",
        "critical_point": NaN,
        "crystal_structure": "face-centered diamond-cubic",
        "curie_point": NaN,
        "density_at_stp": NaN,
        "density_near_rt": "2.3290 g/cm3",
        "density_when_liquid_at_mp": NaN,
        "discovery": NaN,
        "discovery_and_first_isolation": "J\u00f6ns Jacob Berzelius (1823)",
        "electrical_resistivity": "2.3\u00d7103 ?\u00b7m (at 20 \u00b0C)",
        "electron_configuration": "[Ne] 3s2 3p2",
        "electronegativity": "Pauling scale: 1.90",
        "element_category": "metalloid",
        "first_isolation": NaN,
        "group_block": "group 14 (carbon group), p-block",
        "heat_of_fusion": "50.21 kJ/mol",
        "heat_of_vaporisation": NaN,
        "heat_of_vaporization": "383 kJ/mol",
        "ionisation_energies": NaN,
        "ionization_energies": "1st: 786.5 kJ/mol, 2nd: 1577.1 kJ/mol, 3rd: 3231.6 kJ/mol, (more)",
        "iso": "iso, NA, half-life, DM, DE (MeV), DP, 28Si, 92.2%, 28Si is stable with 14 neutrons, 29Si, 4.7%, 29Si is stable with 15 neutrons, 30Si, 3.1%, 30Si is stable with 16 neutrons, 31Si, trace, 2.62 h, ??, 1.495, 31P, 32Si, trace, 153 y, ??, 13.020, 32P",
        "magnetic_ordering": "diamagnetic",
        "melting_point": "1687 K (1414 \u00b0C, 2577 \u00b0F)",
        "mohs_hardness": "7",
        "molar_heat_capacity": "19.789 J/(mol\u00b7K)",
        "molar_volume": NaN,
        "name": "Silicon",
        "named_by": "Thomas Thomson (1817)",
        "naming": "after Latin 'silex' or 'silicis', meaning flint",
        "oxidation_states": "4, 3, 2, 1 ?1, ?2, ?3, ?4 (an amphoteric oxide)",
        "p_(pa)": "vapor pressure, P (Pa), 1, 10, 100, 1 k, 10 k, 100 k, at T (K), 1908, 2102, 2339, 2636, 3021, 3537",
        "per_shell": "2, 8, 4",
        "period": 3,
        "phase": "solid",
        "poisson_ratio": "0.064\u20130.28",
        "prediction": "Antoine Lavoisier (1787)",
        "pronunciation": "/?s?l?k?n/ or /?s?l?k?n/, SIL-?-k?n or SIL-?-kon",
        "proposed_formal_name": NaN,
        "recognised_as_an_element_by": NaN,
        "recognized_as_a_distinct_element_by": NaN,
        "recognized_as_a_unique_metal_by": NaN,
        "recognized_as_an_element_by": NaN,
        "shear_modulus": "51\u201380 GPa",
        "speed_of_sound": NaN,
        "speed_of_sound_thin_rod": "8433 m/s (at 20 \u00b0C)",
        "sublimation_point": NaN,
        "symbol": "Si",
        "tensile_strength": NaN,
        "thermal_conductivity": "149 W/(m\u00b7K)",
        "thermal_diffusivity": NaN,
        "thermal_expansion": "2.6 \u00b5m/(m\u00b7K) (at 25 \u00b0C)",
        "triple_point": NaN,
        "van_der_waals_radius": "210 pm",
        "vickers_hardness": NaN,
        "when_liquid_at_bp": NaN,
        "when_liquid_at_mp": "2.57 g/cm3",
        "youngs_modulus": "130\u2013188 GPa"
    }
}