var element_data = {
    "wiki": "https://en.wikipedia.org/wiki/Silicon",
    "video": "https://www.youtube.com/watch?v=a2aWO5cL410&list=PL7A1F4CF36C085DE1&index=14",
    "image": "Silicon/silicon.jpg",
    "species": "METALLOIDS",
    "symbol": "Si",
    "latin_name": "Silicium",
    "english_name": "Silicon",
    "year_discovered": "1824",
    "discovered_by": "Jöns Jakob Berzelius",
    "Electron_shell": [
        {
            "K": 2
        },
        {
            "L": 8
        },
        {
            "M": 4
        },
        {
            "N": 0
        },
        {
            "O": 0
        },
        {
            "P": 0
        },
        {
            "Q": 0
        },
        {
            "R": 0
        }
    ],
    "epn_no": [
        {
            "electrons": 14,
        },
        {
            "protons": 14,
        },
        {
            "neutrons": 14
        }
    ],
    "atomic_number": 14,
    "atomic_weight": "28.0855 (g/mol)",
    "density": "2.33 (g/cm³)",
    "melting_point": "1414.85 °C = 2578.73 °F = 1688.00 K",
    "boiling_point": "3265 °C = 5909.00 °F = 3538.15 K",
    "valence_electrons": 4,
    "period": 3,
    "group": "IV A",
    "block": "p-block",
    "emission_spectrum": "Silicon/Si.gif",
    "phase": "Solid",
    "phase_icon": "----",
    "fusion_heat": "50.2 (kJ &middot K)",
    "specific_heat": "710 J/(kg &middot; K)",
    "thermal_expansion": "2.6 &middot; 10<sup>-6</sup> °C<sup>-1</sup>)",
    "vaporization_heat": "359 kJ &middot; mol",
    "electron_configuration": "[Ne] 3s<sup>2</sup> 3p<sup>2</sup>",
    "oxidation_state": "-4, -3, -2, -1, +1, +2, +3, +4",
    "ion_charge": "----",
    "ionization_potential": "8.12 eV",
    "atomic_radius": "132 (pm)",
    "covalent_radius": "111 (pm)",
    "van_der_waals_radius": "210 (pm)",
    "electrical_conductivity": "1 &middot; 10<sup>7</sup>",
    "electrical_type": "Semiconductor", 
    "magnetic_type": "Diamagnetic",
    "volume_susceptibility": "-0.00000373",
    "mass_susceptibility": "-0.0000000016",
    "molar_susceptibility": "-4.49 &middot; 10<sup>-11</sup> m<sup>3</sup>/mol",
    "resistivity": "2.3 &middot; 10<sup>3</sup> m\u03A9",
    "superconducting_point": "----",
    "lattice_structure": "Silicon/Diamond_cubic_crystal_structure.svg.png",
    "crystal_structure": "Face-centered diamond-cubic",
    "grid": "a=5.4307 \u212B",
    "attitude": "----",
    "debye_temperature": "371.85 °C = 701.33 °F = 645 K",
    "space_group_name": "Fd_3m",
    "space_group_number": "227",
    "CAS_number": "CAS7440-21-3",
    "CID_number": "CID5461123",
    "RTEC_number": "RTECSVW0400000",
    "brinell_hardness": "---- MPa",
    "mohs_hardness": "6.5",
    "vickers_hardness": "----",
    "bulk_modulus": "97.6 GPa",
    "Young_modulus": "188 GPa",
    "liquid_density": "2.57 (g/cm<sup>3</sup>)",
    "molar_volume": "12.1 (cm<sup>3</sup>/mol)",
    "poisson_ratio": "----",
    "shear_modulus": "---- GPa",
    "sound_speed": "2200 m/s",
    "refractive_index": "----",
    "thermal_conductivity": "150 W/mK",
    "electronegative": "Pauling Scale 1.9",
    "electron_affinity": "133.6 KJ/mol",
    "radioactivity": "no",
    "half_life": "\u221E",
    "life_time": "\u221E",
    "barn": "171 b",
    "hazard_block": [
        {
            "red": "0"
        },
        {
            "yellow": "0"
        },
        {
            "blue": "1"
        },
        {
            "white": "-"
        }
    ],
    "fire_hazard": "Will not burn",
    "health_hazard":"Slightly hazardous",
    "reactivity": "Stable",
    "specific": "----",
    "universe_contains": "0.07 %",
    "sun_contains": "0.09 %",
    "oceans_contains": "---- %",
    "human_body_contains": "0.026 %",
    "earth_crust_contains": "27 %",
    "meteorites_contains": "14 %",
    "start_isotope_number": 22,
    "stop_isotope_number": 31,
    "half_life_number": ["29 ms", "42.3 ms", "140 ms", "220 ms", "2.234 s", "4.16 s", "-", "-", "-", "157.3 m"],
    "iso_weight": [22.0345, 23.02552, 24.01154, 25.00410, 25.99233, 23.98670, 27.97692, 28.97649, 29.97399, 30.97536]
}