var element_data = {
    "wiki": "https://en.wikipedia.org/wiki/Chlorine",
    "video": "https://www.youtube.com/watch?v=BXCfBl4rmh0&list=PL7A1F4CF36C085DE1&index=17",
    "image": "Chlorine/chlorine.jpg",
    "species": "ALKALINE EARTH METALS",
    "symbol": "Cl",
    "latin_name": "Chlorum",
    "english_name": "Chlorine",
    "year_discovered": "1774",
    "discovered_by": "Carl Wilhelm Scheele",
    "Electron_shell": [
        {
            "K": 2
        },
        {
            "L": 8
        },
        {
            "M": 7
        },
        {
            "N": 0
        },
        {
            "O": 0
        },
        {
            "P": 0
        },
        {
            "Q": 0
        },
        {
            "R": 0
        }
    ],
    "epn_no": [
        {
            "electrons": 17,
        },
        {
            "protons": 17,
        },
        {
            "neutrons": 18
        }
    ],
    "atomic_number": 17,
    "atomic_weight": "35.453 (g/mol)",
    "density": "0.003214 (g/cm³)",
    "melting_point": "-100.98 °C = -149.76 °F = 172.17 K",
    "boiling_point": "-34.6 °C = -30.28 °F = 238.55 K",
    "valence_electrons": "7",
    "period": 3,
    "group": "VII A",
    "block": "p-block",
    "emission_spectrum": "Chlorine/Cl.gif",
    "phase": "Gas",
    "phase_icon": "----",
    "fusion_heat": "3.2 (kJ &middot K)",
    "specific_heat": "478.2 J/(kg &middot; K)",
    "thermal_expansion": "---- °C<sup>-1</sup>)",
    "vaporization_heat": "10.2 kJ &middot; mol",
    "electron_configuration": "[Ne] 3s<sup>2</sup>3p<sup>5</sup>",
    "oxidation_state": "-1, +1, +2, +3, +4, +5, +6, +7",
    "ion_charge": "Cl<sup>-</sup>",
    "ionization_potential": "12.96 eV",
    "atomic_radius": "99 (pm)",
    "covalent_radius": "99 (pm)",
    "van_der_waals_radius": "175 (pm)",
    "electrical_conductivity": "0.01",
    "electrical_type": "Dielectric", 
    "magnetic_type": "Dimagnetic",
    "volume_susceptibility": "-0.0000000231",
    "mass_susceptibility": "-0.0000000072",
    "molar_susceptibility": "-5.11 &middot; 10<sup>-9</sup> m<sup>3</sup>/mol",
    "resistivity": "100m m\u03A9",
    "superconducting_point": "----",
    "lattice_structure": "Chlorine/Orthorhombic.svg.png",
    "crystal_structure": "Orthorhombic",
    "grid": "a=6.29 \u212B;; b=4.50 \u212B;; c=8.21 \u212B;",
    "attitude": "----",
    "debye_temperature": "----",
    "space_group_name": "R_3m",
    "space_group_number": "64",
    "CAS_number": "CAS7782-50-5",
    "CID_number": "CID24562",
    "RTEC_number": "RTECSFO2100000",
    "brinell_hardness": "---- MPa",
    "mohs_hardness": "----",
    "vickers_hardness": "----",
    "bulk_modulus": "---- GPa",
    "Young_modulus": "---- GPa",
    "liquid_density": "---- (g/cm<sup>3</sup>)",
    "molar_volume": "18.7 (cm<sup>3</sup>/mol)",
    "poisson_ratio": "----",
    "shear_modulus": "---- GPa",
    "sound_speed": "206 m/s",
    "refractive_index": "----",
    "thermal_conductivity": "0.0089 W/mK",
    "electronegative": "Pauling Scale 3.16",
    "electron_affinity": "349 KJ/mol",
    "radioactivity": "no",
    "half_life": "\u221E",
    "life_time": "\u221E",
    "barn": "35.3 b",
    "hazard_block": [
        {
            "red": "-"
        },
        {
            "yellow": "-"
        },
        {
            "blue": "-"
        },
        {
            "white": "-"
        }
    ],
    "fire_hazard": "----",
    "health_hazard":"----",
    "reactivity": "----",
    "specific": "----",
    "universe_contains": "0.0001 %",
    "sun_contains": "0.00008 %",
    "oceans_contains": "2 %",
    "human_body_contains": "0.12 %",
    "earth_crust_contains": "0.01 %",
    "meteorites_contains": "0.037 %",
    "start_isotope_number": 28,
    "stop_isotope_number": 51,
    "half_life_number": ["--", "20 ns", "30 ns", "150 ms", "298 ms", "2.511 ms", "1.5264 ms", "--", "301000 years", "--", "37.24 m", "55.6 m", "1.36 m", "38.4 s", "6.8 s", "3.07 s", "560 ms", "400 ms", "232 ms", "101 ms", "100 ms", "50 ms", "20 ms", "2 ms"],
    "iso_weight": [28.02851, 29.01411, 30.00477, 30.99241, 31.98596, 32.977, 33.973, 34.96885, 35.96830, 36.96590, 37.96810, 38.9680, 39.97049, 40.97068, 41.97325, 42.97405, 43.97828, 44.98029, 45.98421, 46.98871, 47.99495, 49.00032, 50.00784, 51.01449]
}