{
    "chlorine_Cl": {
        "allotropes": NaN,
        "alternative_name": NaN,
        "alternative_names": NaN,
        "appearance": "pale yellow-green gas",
        "at_t_(k)": 128.0,
        "atomic_number": 17,
        "atomic_radius": NaN,
        "atomic_weight": "35.45 (35.446\u201335.457)",
        "band_gap": NaN,
        "boiling_point": "239.11 K (?34.04 \u00b0C, ?29.27 \u00b0F)",
        "brinell_hardness": NaN,
        "bulk_modulus": NaN,
        "cas_number": "7782-50-5",
        "color": NaN,
        "covalent_radius": "102\u00b14 pm",
        "critical_point": "416.9 K, 7.991 MPa",
        "crystal_structure": "orthorhombic",
        "curie_point": NaN,
        "density_at_stp": "3.2 g/L",
        "density_near_rt": NaN,
        "density_when_liquid_at_mp": NaN,
        "discovery": NaN,
        "discovery_and_first_isolation": "Carl Wilhelm Scheele (1774)",
        "electrical_resistivity": ">10 ?\u00b7m (at 20 \u00b0C)",
        "electron_configuration": "[Ne] 3s2 3p5",
        "electronegativity": "Pauling scale: 3.16",
        "element_category": "diatomic nonmetal",
        "first_isolation": NaN,
        "group_block": "group 17 (halogens), p-block",
        "heat_of_fusion": "(Cl2) 6.406 kJ/mol",
        "heat_of_vaporisation": "(Cl2) 20.41 kJ/mol",
        "heat_of_vaporization": NaN,
        "ionisation_energies": "1st: 1251.2 kJ/mol, 2nd: 2298 kJ/mol, 3rd: 3822 kJ/mol, (more)",
        "ionization_energies": NaN,
        "iso": "iso, NA, half-life, DM, DE (MeV), DP, 35Cl, 76%, 35Cl is stable with 18 neutrons, 36Cl, trace, 3.01\u00d7105 y, ??, 0.709, 36Ar, ?, \u2013, 36S, 37Cl, 24%, 37Cl is stable with 20 neutrons",
        "magnetic_ordering": "diamagnetic",
        "melting_point": "171.6 K (?101.5 \u00b0C, ?150.7 \u00b0F)",
        "mohs_hardness": NaN,
        "molar_heat_capacity": "(Cl2), 33.949 J/(mol\u00b7K)",
        "molar_volume": NaN,
        "name": "Chlorine",
        "named_by": NaN,
        "naming": NaN,
        "oxidation_states": "7, 6, 5, 4, 3, 2, 1, ?1 (a strongly acidic oxide)",
        "p_(pa)": "vapour pressure, P (Pa), 1, 10, 100, 1 k, 10 k, 100 k, at T (K), 128, 139, 153, 170, 197, 239",
        "per_shell": "2, 8, 7",
        "period": 3,
        "phase": "gas",
        "poisson_ratio": NaN,
        "prediction": NaN,
        "pronunciation": "/?kl??ri?n/ or /?kl??r?n/, KLOHR-een or KLOHR-?n",
        "proposed_formal_name": NaN,
        "recognised_as_an_element_by": NaN,
        "recognized_as_a_distinct_element_by": NaN,
        "recognized_as_a_unique_metal_by": NaN,
        "recognized_as_an_element_by": "Humphry Davy (1808)",
        "shear_modulus": NaN,
        "speed_of_sound": "206 m/s (gas, at 0 \u00b0C)",
        "speed_of_sound_thin_rod": NaN,
        "sublimation_point": NaN,
        "symbol": "Cl",
        "tensile_strength": NaN,
        "thermal_conductivity": "8.9\u00d710?3 W/(m\u00b7K)",
        "thermal_diffusivity": NaN,
        "thermal_expansion": NaN,
        "triple_point": NaN,
        "van_der_waals_radius": "175 pm",
        "vickers_hardness": NaN,
        "when_liquid_at_bp": "1.5625 g/cm3",
        "when_liquid_at_mp": NaN,
        "youngs_modulus": NaN
    }
}