{
    "radium_Ra": {
        "allotropes": NaN,
        "alternative_name": NaN,
        "alternative_names": NaN,
        "appearance": "silvery white metallic",
        "at_t_(k)": 819.0,
        "atomic_number": 88,
        "atomic_radius": NaN,
        "atomic_weight": "(226)",
        "band_gap": NaN,
        "boiling_point": "2010 K (1737 \u00b0C, 3159 \u00b0F)",
        "brinell_hardness": NaN,
        "bulk_modulus": NaN,
        "cas_number": "7440-14-4",
        "color": NaN,
        "covalent_radius": "221\u00b12 pm",
        "critical_point": NaN,
        "crystal_structure": "body-centered cubic (bcc)",
        "curie_point": NaN,
        "density_at_stp": NaN,
        "density_near_rt": "5.5 g/cm3",
        "density_when_liquid_at_mp": NaN,
        "discovery": "Pierre and Marie Curie (1898)",
        "discovery_and_first_isolation": NaN,
        "electrical_resistivity": "1 \u00b5?\u00b7m (at 20 \u00b0C)",
        "electron_configuration": "[Rn] 7s2",
        "electronegativity": "Pauling scale: 0.9",
        "element_category": "alkaline earth metal",
        "first_isolation": "Marie Curie (1910)",
        "group_block": "group 2 (alkaline earth metals), s-block",
        "heat_of_fusion": "8.5 kJ/mol",
        "heat_of_vaporisation": NaN,
        "heat_of_vaporization": "113 kJ/mol",
        "ionisation_energies": NaN,
        "ionization_energies": "1st: 509.3 kJ/mol, 2nd: 979.0 kJ/mol",
        "iso": "iso, NA, half-life, DM, DE (MeV), DP, 223Ra, trace, 11.43 d, ?, 5.99, 219Rn, 224Ra, trace, 3.6319 d, ?, 5.789, 220Rn, 225Ra, trace, 14.9 d, ??, 0.356, 225Ac, 226Ra, trace, 1600 y, ?, 4.871, 222Rn, 228Ra, trace, 5.75 y, ??, 0.046, 228Ac",
        "magnetic_ordering": "nonmagnetic",
        "melting_point": "973 K (700 \u00b0C, 1292 \u00b0F) (disputed)",
        "mohs_hardness": NaN,
        "molar_heat_capacity": NaN,
        "molar_volume": NaN,
        "name": "Radium",
        "named_by": NaN,
        "naming": NaN,
        "oxidation_states": "2 (expected to have a strongly basic oxide)",
        "p_(pa)": "vapor pressure, P (Pa), 1, 10, 100, 1 k, 10 k, 100 k, at T (K), 819, 906, 1037, 1209, 1446, 1799",
        "per_shell": "2, 8, 18, 32, 18, 8, 2",
        "period": 7,
        "phase": "solid",
        "poisson_ratio": NaN,
        "prediction": NaN,
        "pronunciation": "/?re?di?m/, RAY-dee-?m",
        "proposed_formal_name": NaN,
        "recognised_as_an_element_by": NaN,
        "recognized_as_a_distinct_element_by": NaN,
        "recognized_as_a_unique_metal_by": NaN,
        "recognized_as_an_element_by": NaN,
        "shear_modulus": NaN,
        "speed_of_sound": NaN,
        "speed_of_sound_thin_rod": NaN,
        "sublimation_point": NaN,
        "symbol": "Ra",
        "tensile_strength": NaN,
        "thermal_conductivity": "18.6 W/(m\u00b7K)",
        "thermal_diffusivity": NaN,
        "thermal_expansion": NaN,
        "triple_point": NaN,
        "van_der_waals_radius": "283 pm",
        "vickers_hardness": NaN,
        "when_liquid_at_bp": NaN,
        "when_liquid_at_mp": NaN,
        "youngs_modulus": NaN
    }
}