{
    "calcium_Ca": {
        "allotropes": NaN,
        "alternative_name": NaN,
        "alternative_names": NaN,
        "appearance": "dull gray, silver; with a pale yellow tint",
        "at_t_(k)": 864.0,
        "atomic_number": 20,
        "atomic_radius": "empirical: 197 pm",
        "atomic_weight": "40.078(4)",
        "band_gap": NaN,
        "boiling_point": "1757 K (1484 \u00b0C, 2703 \u00b0F)",
        "brinell_hardness": "170\u2013416 MPa",
        "bulk_modulus": "17 GPa",
        "cas_number": "7440-70-2",
        "color": NaN,
        "covalent_radius": "176\u00b110 pm",
        "critical_point": NaN,
        "crystal_structure": "face-centered cubic (fcc)",
        "curie_point": NaN,
        "density_at_stp": NaN,
        "density_near_rt": "1.55 g/cm3",
        "density_when_liquid_at_mp": NaN,
        "discovery": NaN,
        "discovery_and_first_isolation": "Humphry Davy (1808)",
        "electrical_resistivity": "33.6 n?\u00b7m (at 20 \u00b0C)",
        "electron_configuration": "[Ar] 4s2",
        "electronegativity": "Pauling scale: 1.00",
        "element_category": "alkaline earth metal",
        "first_isolation": NaN,
        "group_block": "group 2 (alkaline earth metals), s-block",
        "heat_of_fusion": "8.54 kJ/mol",
        "heat_of_vaporisation": NaN,
        "heat_of_vaporization": "154.7 kJ/mol",
        "ionisation_energies": NaN,
        "ionization_energies": "1st: 589.8 kJ/mol, 2nd: 1145.4 kJ/mol, 3rd: 4912.4 kJ/mol, (more)",
        "iso": "iso\nNA\nhalf-life\nDM\nDE (MeV)\nDP\n\n\n40Ca\n96.941%\n40Ca is stable with 20 neutrons\n\n\n41Ca\ntrace\n1.03\u00d7105 y\n?\n\u2013\n41K\n\n\n42Ca\n0.647%\n42Ca is stable with 22 neutrons\n\n\n43Ca\n0.135%\n43Ca is stable with 23 neutrons\n\n\n44Ca\n2.086%\n44Ca is stable with 24 neutrons\n\n\n45Ca\nsyn\n162.7 d\n??\n0.258\n45Sc\n\n\n46Ca\n0.004%\n46Ca is stable with 26 neutrons\n\n\n47Ca\nsyn\n4.536 d\n??\n0.694, 1.99\n47Sc\n\n\n?\n1.297\n\u2013\n\n\n48Ca\n0.187%\n4.3\u00d71019 y\n????\n4.274\n48Ti",
        "magnetic_ordering": "diamagnetic",
        "melting_point": "1115 K (842 \u00b0C, 1548 \u00b0F)",
        "mohs_hardness": "1.75",
        "molar_heat_capacity": "25.929 J/(mol\u00b7K)",
        "molar_volume": NaN,
        "name": "Calcium",
        "named_by": NaN,
        "naming": NaN,
        "oxidation_states": "+2, +1 (a strongly basic oxide)",
        "p_(pa)": "vapor pressure, P (Pa), 1, 10, 100, 1 k, 10 k, 100 k, at T (K), 864, 956, 1071, 1227, 1443, 1755",
        "per_shell": "2, 8, 8, 2",
        "period": 4,
        "phase": "solid",
        "poisson_ratio": "0.31",
        "prediction": NaN,
        "pronunciation": "/?k\u00e6lsi?m/, KAL-see-?m",
        "proposed_formal_name": NaN,
        "recognised_as_an_element_by": NaN,
        "recognized_as_a_distinct_element_by": NaN,
        "recognized_as_a_unique_metal_by": NaN,
        "recognized_as_an_element_by": NaN,
        "shear_modulus": "7.4 GPa",
        "speed_of_sound": NaN,
        "speed_of_sound_thin_rod": "3810 m/s (at 20 \u00b0C)",
        "sublimation_point": NaN,
        "symbol": "Ca",
        "tensile_strength": NaN,
        "thermal_conductivity": "201 W/(m\u00b7K)",
        "thermal_diffusivity": NaN,
        "thermal_expansion": "22.3 \u00b5m/(m\u00b7K) (at 25 \u00b0C)",
        "triple_point": NaN,
        "van_der_waals_radius": "231 pm",
        "vickers_hardness": NaN,
        "when_liquid_at_bp": NaN,
        "when_liquid_at_mp": "1.378 g/cm3",
        "youngs_modulus": "20 GPa"
    }
}