var element_data = {
    "wiki": "https://en.wikipedia.org/wiki/Calcium",
    "video": "https://www.youtube.com/watch?v=V9fuY8_ffFg&list=PL7A1F4CF36C085DE1&index=20",
    "image": "Calcium/calcium.jpg",
    "species": "ALKALINE EARTH METALS",
    "symbol": "Ca",
    "latin_name": "Calcium",
    "english_name": "Calcium",
    "year_discovered": "1808",
    "discovered_by": "Humphry Davy",
    "Electron_shell": [
        {
            "K": 2
        },
        {
            "L": 8
        },
        {
            "M": 8
        },
        {
            "N": 2
        },
        {
            "O": 0
        },
        {
            "P": 0
        },
        {
            "Q": 0
        },
        {
            "R": 0
        }
    ],
    "epn_no": [
        {
            "electrons": 20,
        },
        {
            "protons": 20,
        },
        {
            "neutrons": 20
        }
    ],
    "atomic_number": 20,
    "atomic_weight": "40.078  (g/mol)",
    "density": "1.55 (g/cm³)",
    "melting_point": "842 °C = 1547.60 °F = 1115.15 K",
    "boiling_point": "1484 °C = 2703.20 °F = 1757.15 K",
    "valence_electrons": "2",
    "period": 4,
    "group": "II A",
    "block": "s-block",
    "emission_spectrum": "Calcium/Ca.gif",
    "phase": "Solid",
    "phase_icon": "----",
    "fusion_heat": "8 (kJ &middot K)",
    "specific_heat": "205 J/(kg &middot; K)",
    "thermal_expansion": "20.6 &middot; 10<sup>-6</sup>°C<sup>-1</sup>)",
    "vaporization_heat": "140 kJ &middot; mol",
    "electron_configuration": "[Ar] 4s<sup>2</sup>",
    "oxidation_state": "+2",
    "ion_charge": "Ca<sup>2+</sup>",
    "ionization_potential": "6.09 ev",
    "atomic_radius": "197 (pm)",
    "covalent_radius": "174 (pm)",
    "van_der_waals_radius": "231 (pm)",
    "electrical_conductivity": "2.9 &middot; 10<sup>7</sup>",
    "electrical_type": "Conductor", 
    "magnetic_type": "Paramagnetic",
    "volume_susceptibility": "0.00002139",
    "mass_susceptibility": "-0.0000000138",
    "molar_susceptibility": "5.531 &middot; 10<sup>-10</sup> m<sup>3</sup>/mol",
    "resistivity": "3.4 &middot; 10<sup>-8</sup> m\u03A9",
    "superconducting_point": "----",
    "lattice_structure": "Calcium/Cubic-face-centered.svg.png",
    "crystal_structure": "Face-centered cubic",
    "grid": "a=5.580 \u212B;",
    "attitude": "----",
    "debye_temperature": "-43.15 °C = -45.67 °F = 230 K",
    "space_group_name": "Fm_3m",
    "space_group_number": "225",
    "CAS_number": "CAS7440-70-2",
    "CID_number": "CID5460341",
    "RTEC_number": "----",
    "brinell_hardness": "170-416 MPa",
    "mohs_hardness": "1.5",
    "vickers_hardness": "----",
    "bulk_modulus": "17 GPa",
    "Young_modulus": "20 GPa",
    "liquid_density": "1.378 (g/cm<sup>3</sup>)",
    "molar_volume": "29.9 (cm<sup>3</sup>/mol)",
    "poisson_ratio": "0.31 &micro;",
    "shear_modulus": "7.4 GPa",
    "sound_speed": "3810 m/s",
    "refractive_index": "----",
    "thermal_conductivity": "200 W/mK",
    "electronegative": "Pauling Scale 1",
    "electron_affinity": "2.37 KJ/mol",
    "radioactivity": "no",
    "half_life": "\u221E",
    "life_time": "\u221E",
    "barn": "0.43 b",
    "hazard_block": [
        {
            "red": "1"
        },
        {
            "yellow": "2"
        },
        {
            "blue": "3"
        },
        {
            "white": "-"
        }
    ],
    "fire_hazard": "Above 93.3 °C",
    "health_hazard":"Extreme danger",
    "reactivity": "Violent chemical change",
    "specific": "Use no water",
    "universe_contains": "0.007 %",
    "sun_contains": "0.007 %",
    "oceans_contains": "0.00042 %",
    "human_body_contains": "1.4 %",
    "earth_crust_contains": "5 %",
    "meteorites_contains": "1.1 %",
    "start_isotope_number": 34,
    "stop_isotope_number": 58,
    "half_life_number": ["35 ns", "25.7 ms", "102 ms", "181.1 ms", "440 ms", "859.6 ms", "--", "102000 years", "--", "--", "stable", "162.67 day", "stable", "(4.39 &; 0.58) &middot; 10<sup>19</sup> years", "8.718 m", "13.9 s", "10 s", "4.6 s", "90 ms", "50 ms", "30 ms", "10ms", "5 ms", ">620 ns"],
    "iso_weight": [34.01412, 35.00494, 35.993, 36.985, 37.976318, 38.970719, 39.961590, 40.958618, 41.958618, 42.958766, 43.955481, 44.956186, 45.953692, 46.954546, 47.952534, 48.955674, 49.957519, 50.9615, 51.96510, 52.97005, 53.97435, 54.98055, 55.98557, 56.99236]
}