{
    "manganese_Mn": {
        "allotropes": NaN,
        "alternative_name": NaN,
        "alternative_names": NaN,
        "appearance": "silvery metallic",
        "at_t_(k)": 1228.0,
        "atomic_number": 25,
        "atomic_radius": "empirical: 127 pm",
        "atomic_weight": "54.938044(3)",
        "band_gap": NaN,
        "boiling_point": "2334 K (2061 \u00b0C, 3742 \u00b0F)",
        "brinell_hardness": "196 MPa",
        "bulk_modulus": "120 GPa",
        "cas_number": "7439-96-5",
        "color": NaN,
        "covalent_radius": "Low spin: 139\u00b15 pm, High spin: 161\u00b18 pm",
        "critical_point": NaN,
        "crystal_structure": "body-centered cubic (bcc)",
        "curie_point": NaN,
        "density_at_stp": NaN,
        "density_near_rt": "7.21 g/cm3",
        "density_when_liquid_at_mp": NaN,
        "discovery": "Torbern Olof Bergman (1770)",
        "discovery_and_first_isolation": NaN,
        "electrical_resistivity": "1.44 \u00b5?\u00b7m (at 20 \u00b0C)",
        "electron_configuration": "[Ar] 3d5 4s2",
        "electronegativity": "Pauling scale: 1.55",
        "element_category": "transition metal",
        "first_isolation": "Johann Gottlieb Gahn (1774)",
        "group_block": "group 7, d-block",
        "heat_of_fusion": "12.91 kJ/mol",
        "heat_of_vaporisation": NaN,
        "heat_of_vaporization": "221 kJ/mol",
        "ionisation_energies": NaN,
        "ionization_energies": "1st: 717.3 kJ/mol, 2nd: 1509.0 kJ/mol, 3rd: 3248 kJ/mol, (more)",
        "iso": "iso\nNA\nhalf-life\nDM\nDE (MeV)\nDP\n\n\n52Mn\nsyn\n5.591 d\n?\n\u2013\n52Cr\n\n\n?+\n0.575\n52Cr\n\n\n?\n0.7, 0.9, 1.4\n\u2013\n\n\n53Mn\ntrace\n3.74\u00d7106 y\n?\n\u2013\n53Cr\n\n\n54Mn\nsyn\n312.3 d\n?\n1.377\n54Cr\n\n\n?\n0.834\n\u2013\n\n\n55Mn\n100%\n55Mn is stable with 30 neutrons",
        "magnetic_ordering": "paramagnetic",
        "melting_point": "1519 K (1246 \u00b0C, 2275 \u00b0F)",
        "mohs_hardness": "6",
        "molar_heat_capacity": "26.32 J/(mol\u00b7K)",
        "molar_volume": NaN,
        "name": "Manganese",
        "named_by": NaN,
        "naming": NaN,
        "oxidation_states": "7, 6, 5, 4, 3, 2, 1, ?1, ?2, ?3 acidic, basic or amphoteric; depending on the oxidation state",
        "p_(pa)": "vapor pressure, P (Pa), 1, 10, 100, 1 k, 10 k, 100 k, at T (K), 1228, 1347, 1493, 1691, 1955, 2333",
        "per_shell": "2, 8, 13, 2",
        "period": 4,
        "phase": "solid",
        "poisson_ratio": NaN,
        "prediction": NaN,
        "pronunciation": "/?m\u00e6???ni?z/, MANG-g?-neez",
        "proposed_formal_name": NaN,
        "recognised_as_an_element_by": NaN,
        "recognized_as_a_distinct_element_by": NaN,
        "recognized_as_a_unique_metal_by": NaN,
        "recognized_as_an_element_by": NaN,
        "shear_modulus": NaN,
        "speed_of_sound": NaN,
        "speed_of_sound_thin_rod": "5150 m/s (at 20 \u00b0C)",
        "sublimation_point": NaN,
        "symbol": "Mn",
        "tensile_strength": NaN,
        "thermal_conductivity": "7.81 W/(m\u00b7K)",
        "thermal_diffusivity": NaN,
        "thermal_expansion": "21.7 \u00b5m/(m\u00b7K) (at 25 \u00b0C)",
        "triple_point": NaN,
        "van_der_waals_radius": NaN,
        "vickers_hardness": NaN,
        "when_liquid_at_bp": NaN,
        "when_liquid_at_mp": "5.95 g/cm3",
        "youngs_modulus": "198 GPa"
    }
}