var element_data = {
    "wiki": "https://en.wikipedia.org/wiki/Manganese",
    "video": "https://www.youtube.com/watch?v=uTVtBuY9Q-0&list=PL7A1F4CF36C085DE1&index=25",
    "image": "Manganese/manganese.jpg",
    "species": "ALKALINE EARTH METALS",
    "symbol": "Mn",
    "latin_name": "Manganese",
    "english_name": "Manganese",
    "year_discovered": "1774",
    "discovered_by": "Johan Gottlieb Gahn, Ignatius Gottfried Kaim",
    "Electron_shell": [
        {
            "K": 2
        },
        {
            "L": 8
        },
        {
            "M": 13
        },
        {
            "N": 2
        },
        {
            "O": 0
        },
        {
            "P": 0
        },
        {
            "Q": 0
        },
        {
            "R": 0
        }
    ],
    "epn_no": [
        {
            "electrons": 25,
        },
        {
            "protons": 25,
        },
        {
            "neutrons": 30
        }
    ],
    "atomic_number": 25,
    "atomic_weight": "54.9380 (g/mol)",
    "density": "7.21 (g/cm³)",
    "melting_point": "1245 °C = 2273.00 °F = 1518.15 K",
    "boiling_point": "2061 °C = 3741.80 °F = 2334.15 K",
    "valence_electrons": "4",
    "period": 4,
    "group": "VII B",
    "block": "d-block",
    "emission_spectrum": "Manganese/Mn.gif",
    "phase": "Solid",
    "phase_icon": "----",
    "fusion_heat": "13.2 (kJ &middot K)",
    "specific_heat": "479 J/(kg &middot; K)",
    "thermal_expansion": "21.7 &middot; 10<sup>-6</sup>°C<sup>-1</sup>)",
    "vaporization_heat": "220 kJ &middot; mol",
    "electron_configuration": "[Ar] 3d<sup>5</sup> 4s<sup>-6</sup>",
    "oxidation_state": "-3, -2, -1, +1, +2, +3, +4, +5, +6, +7",
    "ion_charge": "Mn<sup>2+</sup>, Mn<sup>4+</sup>",
    "ionization_potential": "7.40 eV",
    "atomic_radius": "127 (pm)",
    "covalent_radius": "139 (pm)",
    "van_der_waals_radius": "---- (pm)",
    "electrical_conductivity": "6.2 &middot; 10<sup>5</sup>",
    "electrical_type": "Conductor", 
    "magnetic_type": "Paramagnetic",
    "volume_susceptibility": "0.00090387",
    "mass_susceptibility": "0.000000121",
    "molar_susceptibility": "6.6475 &middot; 10<sup>-9</sup> m<sup>3</sup>/mol",
    "resistivity": "1.44 &middot; 10<sup>-6</sup> m\u03A9",
    "superconducting_point": "----",
    "lattice_structure": "Manganese/Lattice_body_centered_cubic.svg.png",
    "crystal_structure": "Body-centered cubic",
    "grid": "a=8.890 \u212B",
    "attitude": "----",
    "debye_temperature": "126.85 °C = 260.33 °F = 400 K",
    "space_group_name": "I_43m",
    "space_group_number": "217",
    "CAS_number": "CAS7439-96-5",
    "CID_number": "CID23930",
    "RTEC_number": "----",
    "brinell_hardness": "196 MPa",
    "mohs_hardness": "6",
    "vickers_hardness": "----",
    "bulk_modulus": "120 GPa",
    "Young_modulus": "198 GPa",
    "liquid_density": "5.95 (g/cm<sup>3</sup>)",
    "molar_volume": "7.1 (cm<sup>3</sup>/mol)",
    "poisson_ratio": "----",
    "shear_modulus": "---- GPa",
    "sound_speed": "5150 m/s",
    "refractive_index": "----",
    "thermal_conductivity": "7.8 W/mK",
    "electronegative": "Pauling Scale 1.55",
    "electron_affinity": "0 KJ/mol",
    "radioactivity": "no",
    "half_life": "\u221E",
    "life_time": "\u221E",
    "barn": "13.3 b",
    "hazard_block": [
        {
            "red": "-"
        },
        {
            "yellow": "-"
        },
        {
            "blue": "-"
        },
        {
            "white": "-"
        }
    ],
    "fire_hazard": "----",
    "health_hazard":"----",
    "reactivity": "----",
    "specific": "----",
    "universe_contains": "0.0008 %",
    "sun_contains": "0.001 %",
    "oceans_contains": "2 &middot; 10<sup>-7</sup> %",
    "human_body_contains": "0.00002 %",
    "earth_crust_contains": "0.11 %",
    "meteorites_contains": "0.27 %",
    "start_isotope_number": 44,
    "stop_isotope_number": 54,
    "half_life_number": ["105 ns", "70 ns", "30 ms", "-", "100 ms", "158.1 ms", "382 ms", "283.29 ms", "46.2 m", "5.591 days"],
    "iso_weight": [44.00687, 44.99451, 45.98672, NaN, 46.97610, 47.96852, 48.95961, 49.95423, 50.94821, 51.94556]
}