{
    "ununpentium_Uup": {
        "allotropes": NaN,
        "alternative_name": NaN,
        "alternative_names": "element 115, eka-bismuth",
        "appearance": NaN,
        "at_t_(k)": NaN,
        "atomic_number": 115,
        "atomic_radius": "empirical: 187 pm (predicted)",
        "atomic_weight": "[289]",
        "band_gap": NaN,
        "boiling_point": "~1400 K (~1100 \u00b0C, ~2000 \u00b0F) (predicted)",
        "brinell_hardness": NaN,
        "bulk_modulus": NaN,
        "cas_number": "54085-64-2",
        "color": NaN,
        "covalent_radius": "156\u2013158 pm (extrapolated)",
        "critical_point": NaN,
        "crystal_structure": NaN,
        "curie_point": NaN,
        "density_at_stp": NaN,
        "density_near_rt": "13.5 g/cm3 (predicted)",
        "density_when_liquid_at_mp": NaN,
        "discovery": "Joint Institute for Nuclear Research and Lawrence Livermore National Laboratory (2003)",
        "discovery_and_first_isolation": NaN,
        "electrical_resistivity": NaN,
        "electron_configuration": "[Rn] 5f14 6d10 7s2 7p3 (predicted)",
        "electronegativity": NaN,
        "element_category": "unknown, but probably a post-transition metal",
        "first_isolation": NaN,
        "group_block": "group 15 (pnictogens), p-block",
        "heat_of_fusion": "5.90\u20135.98 kJ/mol (extrapolated)",
        "heat_of_vaporisation": NaN,
        "heat_of_vaporization": "138 kJ/mol (predicted)",
        "ionisation_energies": NaN,
        "ionization_energies": "1st: 538.4 kJ/mol (predicted), 2nd: 1756.0 kJ/mol (predicted), 3rd: 2653.3 kJ/mol (predicted), (more)",
        "iso": "iso, NA, half-life, DM, DE (MeV), DP, 290Uup, syn, 16 ms, ?, 9.95, 286Uut, 289Uup, syn, 220 ms, ?, 10.31, 285Uut, 288Uup, syn, 87 ms, ?, 10.46, 284Uut, 287Uup, syn, 32 ms, ?, 10.59, 283Uut",
        "magnetic_ordering": NaN,
        "melting_point": "670 K (400 \u00b0C, 750 \u00b0F) (predicted)",
        "mohs_hardness": NaN,
        "molar_heat_capacity": NaN,
        "molar_volume": NaN,
        "name": "Ununpentium",
        "named_by": NaN,
        "naming": "IUPAC systematic element name",
        "oxidation_states": "1, 3 (prediction)",
        "p_(pa)": NaN,
        "per_shell": "2, 8, 18, 32, 32, 18, 5 (predicted)",
        "period": 7,
        "phase": "solid (predicted)",
        "poisson_ratio": NaN,
        "prediction": NaN,
        "pronunciation": "i/u?nu?n?p?nti?m/, oon-oon-PEN-tee-?m",
        "proposed_formal_name": "moscovium, Mc",
        "recognised_as_an_element_by": NaN,
        "recognized_as_a_distinct_element_by": NaN,
        "recognized_as_a_unique_metal_by": NaN,
        "recognized_as_an_element_by": NaN,
        "shear_modulus": NaN,
        "speed_of_sound": NaN,
        "speed_of_sound_thin_rod": NaN,
        "sublimation_point": NaN,
        "symbol": "Uup",
        "tensile_strength": NaN,
        "thermal_conductivity": NaN,
        "thermal_diffusivity": NaN,
        "thermal_expansion": NaN,
        "triple_point": NaN,
        "van_der_waals_radius": NaN,
        "vickers_hardness": NaN,
        "when_liquid_at_bp": NaN,
        "when_liquid_at_mp": NaN,
        "youngs_modulus": NaN
    }
}