var element_data = {
    "wiki": "https://en.wikipedia.org/wiki/Potassium",
    "video": "https://www.youtube.com/watch?v=pPdevJTGAYY&list=PL7A1F4CF36C085DE1&index=19",
    "image": "Potassium/potassium.jpg",
    "species": "ALKALI METALS",
    "symbol": "K",
    "latin_name": "Kalium",
    "english_name": "Potassium",
    "year_discovered": "1807",
    "discovered_by": "Humphry Davy",
    "Electron_shell": [
        {
            "K": 2
        },
        {
            "L": 8
        },
        {
            "M": 8
        },
        {
            "N": 1
        },
        {
            "O": 0
        },
        {
            "P": 0
        },
        {
            "Q": 0
        },
        {
            "R": 0
        }
    ],
    "epn_no": [
        {
            "electrons": 19,
        },
        {
            "protons": 19,
        },
        {
            "neutrons": 81
        }
    ],
    "atomic_number": 19,
    "atomic_weight": "39.0983 (g/mol)",
    "density": "0.856 (g/cm³)",
    "melting_point": "63.38 °C = 146.08 °F = 336.53 K",
    "boiling_point": "758.8 °C = 1397.84 °F = 1031.95 K",
    "valence_electrons": 1,
    "period": 4,
    "group": "I A",
    "block": "s-block",
    "emission_spectrum": "Potassium/K.gif",
    "phase": "Solid",
    "phase_icon": "----",
    "fusion_heat": "2.33 (kJ &middot K)",
    "specific_heat": "757 J/(kg &middot; K)",
    "thermal_expansion": "83.3 &middot; 10<sup>-6</sup> °C<sup>-1</sup>)",
    "vaporization_heat": "76.9 kJ &middot; mol",
    "electron_configuration": "[Ar] 4s<sup>1</sup>",
    "oxidation_state": "-1, +1",
    "ion_charge": "K<sup>+</sup>",
    "ionization_potential": "4.32 eV",
    "atomic_radius": "235 (pm)",
    "covalent_radius": "196 (pm)",
    "van_der_waals_radius": "275 (pm)",
    "electrical_conductivity": "1.4 &middot; 10<sup>7</sup>",
    "electrical_type": "Conductor", 
    "magnetic_type": "----",
    "volume_susceptibility": "0.00000574",
    "mass_susceptibility": "0.000000000262",
    "molar_susceptibility": "2.62 &middot; 10<sup>-10</sup> m<sup>3</sup>/mol",
    "resistivity": "---- m\u03A9",
    "superconducting_point": "----",
    "lattice_structure": "Potassium/Lattice_body_centered_cubic.svg.png",
    "crystal_structure": "Body-centered cubic",
    "grid": "a=5.332 \u212B",
    "attitude": "----",
    "debye_temperature": "-173.15 °C = -279.67 °F = 100 K",
    "space_group_name": "Im_3m",
    "space_group_number": "229",
    "CAS_number": "CAS7440-09-7",
    "CID_number": "CID5462222",
    "RTEC_number": "RTECSTS6460000",
    "brinell_hardness": "0.363 MPa",
    "mohs_hardness": "0.4",
    "vickers_hardness": "----",
    "bulk_modulus": "3.1 GPa",
    "Young_modulus": "3.53 GPa",
    "liquid_density": "0.828 (g/cm<sup>3</sup>)",
    "molar_volume": "45.3 (cm<sup>3</sup>/mol)",
    "poisson_ratio": "----",
    "shear_modulus": "1.3 GPa",
    "sound_speed": "2000 m/s",
    "refractive_index": "----",
    "thermal_conductivity": "100 W/mK",
    "electronegative": "Pauling Scale 0.82",
    "electron_affinity": "48.4 KJ/mol",
    "radioactivity": "no",
    "half_life": "\u221E",
    "life_time": "\u221E",
    "barn": "2.1 b",
    "hazard_block": [
        {
            "red": "3"
        },
        {
            "yellow": "2"
        },
        {
            "blue": "3"
        },
        {
            "white": "-"
        }
    ],
    "fire_hazard": "Below 37.7 °C",
    "health_hazard":"Extreme danger",
    "reactivity": "Violent chemical change",
    "specific": "Use no water",
    "universe_contains": "0.0003 %",
    "sun_contains": "0.0004 %",
    "oceans_contains": "0.042 %",
    "human_body_contains": "0.2 %",
    "earth_crust_contains": "1.5 %",
    "meteorites_contains": "0.07 %",
    "start_isotope_number": 32,
    "stop_isotope_number": 56,
    "half_life_number": ["-", "25 ns", "40 ns", "178 ms", "342 ms", "1.23651 s", "7.636 m", "Stable", "1.248 &middot; 10<sup>9</sup>", "Stable", "12.360 years", "22.3 years", "22.13 m", "17.3 m", "105 s", "17.50 s", "6.8 s", "1.26 s", "472 ms", "365 ms", "105 ms", "30 ms", "10 ms", "3 ms", "620 ns"],
    "iso_weight": [32.02192, 33.00726, 33.99841, 34.988010, 35.981292, 36.973375, 37.969081, 38.963706, 39.963998, 40.961825, 41.96071, 42.96071, 43.96156, 44.96069, 45.96197, 46.96167, 47.96551, 48.96745, 49.97278, 50.97638, 51.98261, 52.98712, 53.99420, 54.99971]
}