{
    "potassium_K": {
        "allotropes": NaN,
        "alternative_name": NaN,
        "alternative_names": NaN,
        "appearance": "silvery gray",
        "at_t_(k)": NaN,
        "atomic_number": 19,
        "atomic_radius": "empirical: 227 pm",
        "atomic_weight": "39.0983(1)",
        "band_gap": NaN,
        "boiling_point": "1032 K (759 \u00b0C, 1398 \u00b0F)",
        "brinell_hardness": "0.363 MPa",
        "bulk_modulus": "3.1 GPa",
        "cas_number": "7440-09-7",
        "color": NaN,
        "covalent_radius": "203\u00b112 pm",
        "critical_point": "2223 K, 16 MPa",
        "crystal_structure": "body-centered cubic (bcc)",
        "curie_point": NaN,
        "density_at_stp": NaN,
        "density_near_rt": "0.862 g/cm3",
        "density_when_liquid_at_mp": NaN,
        "discovery": NaN,
        "discovery_and_first_isolation": "Humphry Davy (1807)",
        "electrical_resistivity": "72 n?\u00b7m (at 20 \u00b0C)",
        "electron_configuration": "[Ar] 4s1",
        "electronegativity": "Pauling scale: 0.82",
        "element_category": "alkali metal",
        "first_isolation": NaN,
        "group_block": "group 1 (alkali metals), s-block",
        "heat_of_fusion": "2.33 kJ/mol",
        "heat_of_vaporisation": NaN,
        "heat_of_vaporization": "76.9 kJ/mol",
        "ionisation_energies": NaN,
        "ionization_energies": "1st: 418.8 kJ/mol, 2nd: 3052 kJ/mol, 3rd: 4420 kJ/mol, (more)",
        "iso": "iso, NA, half-life, DM, DE (MeV), DP, 39K, 93.258%, 39K is stable with 20 neutrons, 40K, 0.012%, 1.248(3)\u00d7109 y, ??, 1.311, 40Ca, ?, 1.505, 40Ar, ?+, 1.505, 40Ar, 41K, 6.730%, 41K is stable with 22 neutrons",
        "magnetic_ordering": "paramagnetic",
        "melting_point": "336.7 K (63.5 \u00b0C, 146.3 \u00b0F)",
        "mohs_hardness": "0.4",
        "molar_heat_capacity": "29.6 J/(mol\u00b7K)",
        "molar_volume": NaN,
        "name": "Potassium",
        "named_by": NaN,
        "naming": NaN,
        "oxidation_states": "+1, ?1 (a strongly basic oxide)",
        "p_(pa)": NaN,
        "per_shell": "2, 8, 8, 1",
        "period": 4,
        "phase": "solid",
        "poisson_ratio": NaN,
        "prediction": NaN,
        "pronunciation": "/po??t\u00e6si?m/, po-TAS-ee-?m",
        "proposed_formal_name": NaN,
        "recognised_as_an_element_by": NaN,
        "recognized_as_a_distinct_element_by": NaN,
        "recognized_as_a_unique_metal_by": NaN,
        "recognized_as_an_element_by": NaN,
        "shear_modulus": "1.3 GPa",
        "speed_of_sound": NaN,
        "speed_of_sound_thin_rod": "2000 m/s (at 20 \u00b0C)",
        "sublimation_point": NaN,
        "symbol": "K",
        "tensile_strength": NaN,
        "thermal_conductivity": "102.5 W/(m\u00b7K)",
        "thermal_diffusivity": NaN,
        "thermal_expansion": "83.3 \u00b5m/(m\u00b7K) (at 25 \u00b0C)",
        "triple_point": NaN,
        "van_der_waals_radius": "275 pm",
        "vickers_hardness": NaN,
        "when_liquid_at_bp": NaN,
        "when_liquid_at_mp": "0.828 g/cm3",
        "youngs_modulus": "3.53 GPa"
    }
}