var element_data = {
    "wiki": "https://en.wikipedia.org/wiki/Samarium",
    "video": "https://www.youtube.com/watch?v=LpTkBg8HpvY&list=PL7A1F4CF36C085DE1&index=62",
    "image": "Samarium/samarium.jpg",
    "species": "LANTHANOIDS",
    "symbol": "Sm",
    "latin_name": "Samarium",
    "english_name": "Samarium",
    "year_discovered": "1879",
    "discovered_by": "Paul Emile Lecoq de Boisbaudran",
    "Electron_shell": [
        {
            "K": 2
        },
        {
            "L": 8
        },
        {
            "M": 18
        },
        {
            "N": 24
        },
        {
            "O": 8
        },
        {
            "P": 2
        },
        {
            "Q": 0
        },
        {
            "R": 0
        }
    ],
    "epn_no": [
        {
            "electrons": 62,
        },
        {
            "protons": 62,
        },
        {
            "neutrons": 88
        }
    ],
    "atomic_number": 62,
    "atomic_weight": "150.36 (g/mol)",
    "density": "7.54 (g/cm³)",
    "melting_point": "1072 °C = 1961.60 °F = 1345.15 K",
    "boiling_point": "1794 °C = 3261.20 °F = 2067.15 K",
    "valence_electrons": 3,
    "period": 6,
    "group": "----",
    "block": "f-block",
    "emission_spectrum": "Samarium/Sm.gif",
    "phase": "Solid",
    "phase_icon": "----",
    "fusion_heat": "8.6 (kJ &middot K)",
    "specific_heat": "196 J/(kg &middot; K)",
    "thermal_expansion": "12.7 &middot; 10<sup>-6</sup>°C<sup>-1</sup>)",
    "vaporization_heat": "175 kJ &middot; mol",
    "electron_configuration": "[Xe] 6s<sup>2</sup>, 4f<sup>6</sup>",
    "oxidation_state": "+2, +3",
    "ion_charge": "Sm<sup>2+</sup>, Sm<sup>3+</sup>",
    "ionization_potential": "6.55 eV",
    "atomic_radius": "181 (pm)",
    "covalent_radius": "166 (pm)",
    "van_der_waals_radius": "---- (pm)",
    "electrical_conductivity": "1.1 &middot; 10<sup>6</sup>",
    "electrical_type": "Conductor", 
    "magnetic_type": "Paramagnetic",
    "volume_susceptibility": "0.00081618",
    "mass_susceptibility": "0.000000111",
    "molar_susceptibility": "1.669 &middot; 10<sup>-9</sup> m<sup>3</sup>/mol",
    "resistivity": "9.4 &middot; 10<sup>-7</sup> m\u03A9",
    "superconducting_point": "----",
    "lattice_structure": "Samarium/Rhombohedral.svg.png",
    "crystal_structure": "Rhombohedral",
    "grid": "a=3.621 \u212B; c=26.25 \u212B",
    "attitude": "7.25",
    "debye_temperature": "-107.15 °C = -160.87 °F = 166 K",
    "space_group_name": "R_3m",
    "space_group_number": "166",
    "CAS_number": "CAS7440-19-9",
    "CID_number": "CID23951",
    "RTEC_number": "----",
    "brinell_hardness": "440-600 MPa",
    "mohs_hardness": "----",
    "vickers_hardness": "410-440 MPa",
    "bulk_modulus": "37.8 GPa",
    "Young_modulus": "49.7 GPa",
    "liquid_density": "7.16 (g/cm<sup>3</sup>)",
    "molar_volume": "19.9 (cm<sup>3</sup>/mol)",
    "poisson_ratio": "0.27 &micro;",
    "shear_modulus": "20 GPa",
    "sound_speed": "313 m/s",
    "refractive_index": "----",
    "thermal_conductivity": "13 W/mK",
    "electronegative": "Pauling Scale 1.1",
    "electron_affinity": "50 KJ/mol",
    "radioactivity": "no",
    "half_life": "\u221E",
    "life_time": "\u221E",
    "barn": "5900 b",
    "hazard_block": [
        {
            "red": "2"
        },
        {
            "yellow": "-"
        },
        {
            "blue": "3"
        },
        {
            "white": "-"
        }
    ],
    "fire_hazard": "Above 93.3 °C",
    "health_hazard":"Slightly hazardous",
    "reactivity": "Unstable if heated",
    "specific": "----",
    "universe_contains": "---- %",
    "sun_contains": "1 &middot; 10<sup>-7</sup> %",
    "oceans_contains": "4.5 &middot; 10<sup>-6</sup> %",
    "human_body_contains": "---- %",
    "earth_crust_contains": "0.0006 %",
    "meteorites_contains": "0.000017 %",
    "start_isotope_number": 128,
    "stop_isotope_number": 132,
    "half_life_number": ["500 ms", "550 ms", "1 s", "1.2 s", "4.0 s"],
    "iso_weight": [127.95808, 128.95464, 129.94892, 130.94611, 131.94069]
}