{
    "samarium_Sm": {
        "allotropes": "? form",
        "alternative_name": NaN,
        "alternative_names": NaN,
        "appearance": "silvery white",
        "at_t_(k)": 1001.0,
        "atomic_number": 62,
        "atomic_radius": "empirical: 180 pm",
        "atomic_weight": "150.36(2)",
        "band_gap": NaN,
        "boiling_point": "2173 K (1900 \u00b0C, 3452 \u00b0F)",
        "brinell_hardness": "440\u2013600 MPa",
        "bulk_modulus": "? form: 37.8 GPa",
        "cas_number": "7440-19-9",
        "color": NaN,
        "covalent_radius": "198\u00b18 pm",
        "critical_point": NaN,
        "crystal_structure": "rhombohedral",
        "curie_point": NaN,
        "density_at_stp": NaN,
        "density_near_rt": "7.52 g/cm3",
        "density_when_liquid_at_mp": NaN,
        "discovery": NaN,
        "discovery_and_first_isolation": "Lecoq de Boisbaudran (1879)",
        "electrical_resistivity": "(r.t.) (?, poly) 0.940 \u00b5?\u00b7m",
        "electron_configuration": "[Xe] 4f6 6s2",
        "electronegativity": "Pauling scale: 1.17",
        "element_category": "lanthanide",
        "first_isolation": NaN,
        "group_block": "group n/a, f-block",
        "heat_of_fusion": "8.62 kJ/mol",
        "heat_of_vaporisation": NaN,
        "heat_of_vaporization": "192 kJ/mol",
        "ionisation_energies": NaN,
        "ionization_energies": "1st: 544.5 kJ/mol, 2nd: 1070 kJ/mol, 3rd: 2260 kJ/mol",
        "iso": "iso, NA, half-life, DM, DE (MeV), DP, 144Sm, 3.08%, 144Sm is stable with 82 neutrons, 145Sm, syn, 340 d, ?, \u2013, 145Pm, 146Sm, syn, 6.8\u00d7107 y, ?, 2.529, 142Nd, 147Sm, 15.00%, 1.06\u00d71011 y, ?, 2.310, 143Nd, 148Sm, 11.25%, 7\u00d71015 y, ?, 1.986, 144Nd, 149Sm, 13.82%, 149Sm is stable with 87 neutrons, 150Sm, 7.37%, 150Sm is stable with 88 neutrons, 151Sm, syn, 90 y, ??, \u2013, 151Eu, 152Sm, 26.74%, 152Sm is stable with 90 neutrons, 153Sm, syn, 46.284 h, ??, \u2013, 153Eu, 154Sm, 22.74%, 154Sm is stable with 92 neutrons",
        "magnetic_ordering": "paramagnetic",
        "melting_point": "1345 K (1072 \u00b0C, 1962 \u00b0F)",
        "mohs_hardness": NaN,
        "molar_heat_capacity": "29.54 J/(mol\u00b7K)",
        "molar_volume": NaN,
        "name": "Samarium",
        "named_by": NaN,
        "naming": "after the mineral samarskite (itself named after Vasili Samarsky-Bykhovets)",
        "oxidation_states": "4, 3, 2, 1 (a mildly basic oxide)",
        "p_(pa)": "vapor pressure, P (Pa), 1, 10, 100, 1 k, 10 k, 100 k, at T (K), 1001, 1106, 1240, (1421), (1675), (2061)",
        "per_shell": "2, 8, 18, 24, 8, 2",
        "period": 6,
        "phase": "solid",
        "poisson_ratio": "? form: 0.274",
        "prediction": NaN,
        "pronunciation": "/s??m??ri?m/, s?-MAIR-ee-?m",
        "proposed_formal_name": NaN,
        "recognised_as_an_element_by": NaN,
        "recognized_as_a_distinct_element_by": NaN,
        "recognized_as_a_unique_metal_by": NaN,
        "recognized_as_an_element_by": NaN,
        "shear_modulus": "? form: 19.5 GPa",
        "speed_of_sound": NaN,
        "speed_of_sound_thin_rod": "2130 m/s (at 20 \u00b0C)",
        "sublimation_point": NaN,
        "symbol": "Sm",
        "tensile_strength": NaN,
        "thermal_conductivity": "13.3 W/(m\u00b7K)",
        "thermal_diffusivity": NaN,
        "thermal_expansion": "(r.t.) (?, poly) 12.7 \u00b5m/(m\u00b7K)",
        "triple_point": NaN,
        "van_der_waals_radius": NaN,
        "vickers_hardness": "410\u2013440 MPa",
        "when_liquid_at_bp": NaN,
        "when_liquid_at_mp": "7.16 g/cm3",
        "youngs_modulus": "? form: 49.7 GPa"
    }
}