{
    "bromine_Br": {
        "allotropes": NaN,
        "alternative_name": NaN,
        "alternative_names": NaN,
        "appearance": "reddish-brown",
        "at_t_(k)": 185.0,
        "atomic_number": 35,
        "atomic_radius": "empirical: 120 pm",
        "atomic_weight": "79.904 (79.901\u201379.907)",
        "band_gap": NaN,
        "boiling_point": "332.0 K (58.8 \u00b0C, 137.8 \u00b0F)",
        "brinell_hardness": NaN,
        "bulk_modulus": NaN,
        "cas_number": "7726-95-6",
        "color": NaN,
        "covalent_radius": "120\u00b13 pm",
        "critical_point": "588 K, 10.34 MPa",
        "crystal_structure": "orthorhombic",
        "curie_point": NaN,
        "density_at_stp": NaN,
        "density_near_rt": "Br2, liquid: 3.1028 g/cm3",
        "density_when_liquid_at_mp": NaN,
        "discovery": NaN,
        "discovery_and_first_isolation": "Antoine J\u00e9r\u00f4me Balard and Carl Jacob L\u00f6wig (1825)",
        "electrical_resistivity": "7.8\u00d71010 ?\u00b7m (at 20 \u00b0C)",
        "electron_configuration": "[Ar] 3d10 4s2 4p5",
        "electronegativity": "Pauling scale: 2.96",
        "element_category": "diatomic nonmetal",
        "first_isolation": NaN,
        "group_block": "group 17 (halogens), p-block",
        "heat_of_fusion": "(Br2) 10.571 kJ/mol",
        "heat_of_vaporisation": "(Br2) 29.96 kJ/mol",
        "heat_of_vaporization": NaN,
        "ionisation_energies": "1st: 1139.9 kJ/mol, 2nd: 2103 kJ/mol, 3rd: 3470 kJ/mol",
        "ionization_energies": NaN,
        "iso": "iso, NA, half-life, DM, DE (MeV), DP, 79Br, 51%, 79Br is stable with 44 neutrons, 81Br, 49%, 81Br is stable with 46 neutrons",
        "magnetic_ordering": "diamagnetic",
        "melting_point": "265.8 K (?7.2 \u00b0C, 19 \u00b0F)",
        "mohs_hardness": NaN,
        "molar_heat_capacity": "(Br2) 75.69 J/(mol\u00b7K)",
        "molar_volume": NaN,
        "name": "Bromine",
        "named_by": NaN,
        "naming": NaN,
        "oxidation_states": "7, 5, 4, 3, 1, ?1 (a strongly acidic oxide)",
        "p_(pa)": "vapour pressure, P (Pa), 1, 10, 100, 1 k, 10 k, 100 k, at T (K), 185, 201, 220, 244, 276, 332",
        "per_shell": "2, 8, 18, 7",
        "period": 4,
        "phase": "liquid",
        "poisson_ratio": NaN,
        "prediction": NaN,
        "pronunciation": "/?bro?mi?n/ or /?bro?m?n/, BROH-meen or BROH-min",
        "proposed_formal_name": NaN,
        "recognised_as_an_element_by": NaN,
        "recognized_as_a_distinct_element_by": NaN,
        "recognized_as_a_unique_metal_by": NaN,
        "recognized_as_an_element_by": NaN,
        "shear_modulus": NaN,
        "speed_of_sound": "206 m/s (at 20 \u00b0C)",
        "speed_of_sound_thin_rod": NaN,
        "sublimation_point": NaN,
        "symbol": "Br",
        "tensile_strength": NaN,
        "thermal_conductivity": "0.122 W/(m\u00b7K)",
        "thermal_diffusivity": NaN,
        "thermal_expansion": NaN,
        "triple_point": "265.90 K, 5.8 kPa",
        "van_der_waals_radius": "185 pm",
        "vickers_hardness": NaN,
        "when_liquid_at_bp": NaN,
        "when_liquid_at_mp": NaN,
        "youngs_modulus": NaN
    }
}