{
    "neon_Ne": {
        "allotropes": NaN,
        "alternative_name": NaN,
        "alternative_names": NaN,
        "appearance": "colorless gas exhibiting an orange-red glow when placed in a high voltage electric field",
        "at_t_(k)": 12.0,
        "atomic_number": 10,
        "atomic_radius": NaN,
        "atomic_weight": "20.1797(6)",
        "band_gap": NaN,
        "boiling_point": "27.104 K (?246.046 \u00b0C, ?410.883 \u00b0F)",
        "brinell_hardness": NaN,
        "bulk_modulus": "654 GPa",
        "cas_number": "7440-01-9",
        "color": NaN,
        "covalent_radius": "58 pm",
        "critical_point": "44.4918 K, 2.7686 MPa",
        "crystal_structure": "face-centered cubic (fcc)",
        "curie_point": NaN,
        "density_at_stp": "0.9002 g/L",
        "density_near_rt": NaN,
        "density_when_liquid_at_mp": NaN,
        "discovery": NaN,
        "discovery_and_first_isolation": "William Ramsay & Morris Travers (1898)",
        "electrical_resistivity": NaN,
        "electron_configuration": "[He] 2s2 2p6",
        "electronegativity": NaN,
        "element_category": "noble gas",
        "first_isolation": NaN,
        "group_block": "group 18 (noble gases), p-block",
        "heat_of_fusion": "0.335 kJ/mol",
        "heat_of_vaporisation": NaN,
        "heat_of_vaporization": "1.71 kJ/mol",
        "ionisation_energies": NaN,
        "ionization_energies": "1st: 2080.7 kJ/mol, 2nd: 3952.3 kJ/mol, 3rd: 6122 kJ/mol, (more)",
        "iso": "iso, NA, half-life, DM, DE (MeV), DP, 20Ne, 90.48%, 20Ne is stable with 10 neutrons, 21Ne, 0.27%, 21Ne is stable with 11 neutrons, 22Ne, 9.25%, 22Ne is stable with 12 neutrons",
        "magnetic_ordering": "diamagnetic",
        "melting_point": "24.56 K (?248.59 \u00b0C, ?415.46 \u00b0F)",
        "mohs_hardness": NaN,
        "molar_heat_capacity": "20.79 J/(mol\u00b7K)",
        "molar_volume": NaN,
        "name": "Neon",
        "named_by": NaN,
        "naming": NaN,
        "oxidation_states": "0",
        "p_(pa)": "vapor pressure, P (Pa), 1, 10, 100, 1 k, 10 k, 100 k, at T (K), 12, 13, 15, 18, 21, 27",
        "per_shell": "2, 8",
        "period": 2,
        "phase": "gas",
        "poisson_ratio": NaN,
        "prediction": "William Ramsay (1897)",
        "pronunciation": "/?ni??n/",
        "proposed_formal_name": NaN,
        "recognised_as_an_element_by": NaN,
        "recognized_as_a_distinct_element_by": NaN,
        "recognized_as_a_unique_metal_by": NaN,
        "recognized_as_an_element_by": NaN,
        "shear_modulus": NaN,
        "speed_of_sound": "435 m/s (gas, at 0 \u00b0C)",
        "speed_of_sound_thin_rod": NaN,
        "sublimation_point": NaN,
        "symbol": "Ne",
        "tensile_strength": NaN,
        "thermal_conductivity": "49.1\u00d710?3 W/(m\u00b7K)",
        "thermal_diffusivity": NaN,
        "thermal_expansion": NaN,
        "triple_point": "24.556 K, 43.37 kPa",
        "van_der_waals_radius": "154 pm",
        "vickers_hardness": NaN,
        "when_liquid_at_bp": "1.207 g/cm3",
        "when_liquid_at_mp": NaN,
        "youngs_modulus": NaN
    }
}