{
    "oxygen_O": {
        "allotropes": NaN,
        "alternative_name": NaN,
        "alternative_names": NaN,
        "appearance": "gas: colorless, liquid: pale blue",
        "at_t_(k)": NaN,
        "atomic_number": 8,
        "atomic_radius": NaN,
        "atomic_weight": "15.999 (15.99903\u201315.99977)",
        "band_gap": NaN,
        "boiling_point": "90.188 K (?182.962 \u00b0C, ?297.332 \u00b0F)",
        "brinell_hardness": NaN,
        "bulk_modulus": NaN,
        "cas_number": "7782-44-7",
        "color": NaN,
        "covalent_radius": "66\u00b12 pm",
        "critical_point": "154.581 K, 5.043 MPa",
        "crystal_structure": "cubic",
        "curie_point": NaN,
        "density_at_stp": "1.429 g/L",
        "density_near_rt": NaN,
        "density_when_liquid_at_mp": NaN,
        "discovery": "Carl Wilhelm Scheele (1772)",
        "discovery_and_first_isolation": NaN,
        "electrical_resistivity": NaN,
        "electron_configuration": "[He] 2s2 2p4",
        "electronegativity": "Pauling scale: 3.44",
        "element_category": "diatomic nonmetal",
        "first_isolation": NaN,
        "group_block": "group 16 (chalcogens), p-block",
        "heat_of_fusion": "(O2) 0.444 kJ/mol",
        "heat_of_vaporisation": NaN,
        "heat_of_vaporization": "(O2) 6.82 kJ/mol",
        "ionisation_energies": NaN,
        "ionization_energies": "1st: 1313.9 kJ/mol, 2nd: 3388.3 kJ/mol, 3rd: 5300.5 kJ/mol, (more)",
        "iso": "iso, NA, half-life, DM, DE (MeV), DP, 16O, 99.76%, 16O is stable with 8 neutrons, 17O, 0.04%, 17O is stable with 9 neutrons, 18O, 0.20%, 18O is stable with 10 neutrons",
        "magnetic_ordering": "paramagnetic",
        "melting_point": "54.36 K (?218.79 \u00b0C, ?361.82 \u00b0F)",
        "mohs_hardness": NaN,
        "molar_heat_capacity": "(O2) 29.378 J/(mol\u00b7K)",
        "molar_volume": NaN,
        "name": "Oxygen",
        "named_by": "Antoine Lavoisier (1777)",
        "naming": NaN,
        "oxidation_states": "2, 1, ?1, ?2",
        "p_(pa)": "vapor pressure, P (Pa), 1, 10, 100, 1 k, 10 k, 100 k, at T (K), 61, 73, 90",
        "per_shell": "2, 6",
        "period": 2,
        "phase": "gas",
        "poisson_ratio": NaN,
        "prediction": NaN,
        "pronunciation": "/??ks?d??n/, OK-si-j?n",
        "proposed_formal_name": NaN,
        "recognised_as_an_element_by": NaN,
        "recognized_as_a_distinct_element_by": NaN,
        "recognized_as_a_unique_metal_by": NaN,
        "recognized_as_an_element_by": NaN,
        "shear_modulus": NaN,
        "speed_of_sound": "330 m/s (gas, at 27 \u00b0C)",
        "speed_of_sound_thin_rod": NaN,
        "sublimation_point": NaN,
        "symbol": "O",
        "tensile_strength": NaN,
        "thermal_conductivity": "26.58\u00d710?3  W/(m\u00b7K)",
        "thermal_diffusivity": NaN,
        "thermal_expansion": NaN,
        "triple_point": "54.361 K, 0.1463 kPa",
        "van_der_waals_radius": "152 pm",
        "vickers_hardness": NaN,
        "when_liquid_at_bp": "1.141 g/cm3",
        "when_liquid_at_mp": NaN,
        "youngs_modulus": NaN
    }
}