{
    "germanium_Ge": {
        "allotropes": NaN,
        "alternative_name": NaN,
        "alternative_names": NaN,
        "appearance": "grayish-white",
        "at_t_(k)": 1644.0,
        "atomic_number": 32,
        "atomic_radius": "empirical: 122 pm",
        "atomic_weight": "72.630(8)",
        "band_gap": "0.67 eV (at 300 K)",
        "boiling_point": "3106 K (2833 \u00b0C, 5131 \u00b0F)",
        "brinell_hardness": NaN,
        "bulk_modulus": "75 GPa",
        "cas_number": "7440-56-4",
        "color": NaN,
        "covalent_radius": "122 pm",
        "critical_point": NaN,
        "crystal_structure": "face-centered diamond-cubic",
        "curie_point": NaN,
        "density_at_stp": NaN,
        "density_near_rt": "5.323 g/cm3",
        "density_when_liquid_at_mp": NaN,
        "discovery": "Clemens Winkler (1886)",
        "discovery_and_first_isolation": NaN,
        "electrical_resistivity": "1 ?\u00b7m (at 20 \u00b0C)",
        "electron_configuration": "[Ar] 3d10 4s2 4p2",
        "electronegativity": "Pauling scale: 2.01",
        "element_category": "metalloid",
        "first_isolation": NaN,
        "group_block": "group 14 (carbon group), p-block",
        "heat_of_fusion": "36.94 kJ/mol",
        "heat_of_vaporisation": NaN,
        "heat_of_vaporization": "334 kJ/mol",
        "ionisation_energies": NaN,
        "ionization_energies": "1st: 762 kJ/mol, 2nd: 1537.5 kJ/mol, 3rd: 3302.1 kJ/mol",
        "iso": "iso, NA, half-life, DM, DE (MeV), DP, 68Ge, syn, 270.8 d, ?, \u2013, 68Ga, 70Ge, 20.52%, 70Ge is stable with 38 neutrons, 71Ge, syn, 11.26 d, ?, \u2013, 71Ga, 72Ge, 27.45%, 72Ge is stable with 40 neutrons, 73Ge, 7.76%, 73Ge is stable with 41 neutrons, 74Ge, 36.52%, 74Ge is stable with 42 neutrons, 76Ge, 7.75%, 1.78\u00d71021 y, ????, 2.039, 76Se",
        "magnetic_ordering": "diamagnetic",
        "melting_point": "1211.40 K (938.25 \u00b0C, 1720.85 \u00b0F)",
        "mohs_hardness": "6",
        "molar_heat_capacity": "23.222 J/(mol\u00b7K)",
        "molar_volume": NaN,
        "name": "Germanium",
        "named_by": NaN,
        "naming": "after Germany, homeland of the discoverer",
        "oxidation_states": "4, 3, 2, 1, 0, ?1, ?2, ?3, ?4 (an amphoteric oxide)",
        "p_(pa)": "vapor pressure, P (Pa), 1, 10, 100, 1 k, 10 k, 100 k, at T (K), 1644, 1814, 2023, 2287, 2633, 3104",
        "per_shell": "2, 8, 18, 4",
        "period": 4,
        "phase": "solid",
        "poisson_ratio": "0.26",
        "prediction": "Dmitri Mendeleev (1871)",
        "pronunciation": "/d??r?me?ni?m/, j?r-MAY-nee-?m",
        "proposed_formal_name": NaN,
        "recognised_as_an_element_by": NaN,
        "recognized_as_a_distinct_element_by": NaN,
        "recognized_as_a_unique_metal_by": NaN,
        "recognized_as_an_element_by": NaN,
        "shear_modulus": "41 GPa",
        "speed_of_sound": NaN,
        "speed_of_sound_thin_rod": "5400 m/s (at 20 \u00b0C)",
        "sublimation_point": NaN,
        "symbol": "Ge",
        "tensile_strength": NaN,
        "thermal_conductivity": "60.2 W/(m\u00b7K)",
        "thermal_diffusivity": NaN,
        "thermal_expansion": "6.0 \u00b5m/(m\u00b7K)",
        "triple_point": NaN,
        "van_der_waals_radius": "211 pm",
        "vickers_hardness": NaN,
        "when_liquid_at_bp": NaN,
        "when_liquid_at_mp": "5.60 g/cm3",
        "youngs_modulus": "103 GPa"
    }
}