{
    "nitrogen_N": {
        "allotropes": NaN,
        "alternative_name": NaN,
        "alternative_names": NaN,
        "appearance": "colorless gas, liquid or solid",
        "at_t_(k)": 37.0,
        "atomic_number": 7,
        "atomic_radius": NaN,
        "atomic_weight": "14.007 (14.00643\u201314.00728)",
        "band_gap": NaN,
        "boiling_point": "77.355 K (?195.795 \u00b0C, ?320.431 \u00b0F)",
        "brinell_hardness": NaN,
        "bulk_modulus": NaN,
        "cas_number": "7727-37-9",
        "color": NaN,
        "covalent_radius": "71\u00b11 pm",
        "critical_point": "126.192 K, 3.3958 MPa",
        "crystal_structure": "hexagonal",
        "curie_point": NaN,
        "density_at_stp": "1.251 g/L",
        "density_near_rt": NaN,
        "density_when_liquid_at_mp": NaN,
        "discovery": "Daniel Rutherford (1772)",
        "discovery_and_first_isolation": NaN,
        "electrical_resistivity": NaN,
        "electron_configuration": "[He] 2s2 2p3",
        "electronegativity": "Pauling scale: 3.04",
        "element_category": "diatomic nonmetal",
        "first_isolation": NaN,
        "group_block": "group 15 (pnictogens), p-block",
        "heat_of_fusion": "(N2) 0.72 kJ/mol",
        "heat_of_vaporisation": "(N2) 5.56 kJ/mol",
        "heat_of_vaporization": NaN,
        "ionisation_energies": "1st: 1402.3 kJ/mol, 2nd: 2856 kJ/mol, 3rd: 4578.1 kJ/mol, (more)",
        "ionization_energies": NaN,
        "iso": "iso, NA, half-life, DM, DE (MeV), DP, 13N, syn, 9.965 min, ?, 2.220, 13C, 14N, 99.6%, 14N is stable with 7 neutrons, 15N, 0.4%, 15N is stable with 8 neutrons",
        "magnetic_ordering": "diamagnetic",
        "melting_point": "63.15 K (?210.00 \u00b0C, ?346.00 \u00b0F)",
        "mohs_hardness": NaN,
        "molar_heat_capacity": "(N2) 29.124 J/(mol\u00b7K)",
        "molar_volume": NaN,
        "name": "Nitrogen",
        "named_by": "Jean-Antoine Chaptal (1790)",
        "naming": NaN,
        "oxidation_states": "5, 4, 3, 2, 1, ?1, ?2, ?3 (a strongly acidic oxide)",
        "p_(pa)": "vapour pressure, P (Pa), 1, 10, 100, 1 k, 10 k, 100 k, at T (K), 37, 41, 46, 53, 62, 77",
        "per_shell": "2, 5",
        "period": 2,
        "phase": "gas",
        "poisson_ratio": NaN,
        "prediction": NaN,
        "pronunciation": "/?na?tr?d??n/, NY-tr?-j?n",
        "proposed_formal_name": NaN,
        "recognised_as_an_element_by": NaN,
        "recognized_as_a_distinct_element_by": NaN,
        "recognized_as_a_unique_metal_by": NaN,
        "recognized_as_an_element_by": NaN,
        "shear_modulus": NaN,
        "speed_of_sound": "353 m/s (gas, at 27 \u00b0C)",
        "speed_of_sound_thin_rod": NaN,
        "sublimation_point": NaN,
        "symbol": "N",
        "tensile_strength": NaN,
        "thermal_conductivity": "25.83\u00d710?3 W/(m\u00b7K)",
        "thermal_diffusivity": NaN,
        "thermal_expansion": NaN,
        "triple_point": "63.151 K, 12.52 kPa",
        "van_der_waals_radius": "155 pm",
        "vickers_hardness": NaN,
        "when_liquid_at_bp": "0.808 g/cm3",
        "when_liquid_at_mp": NaN,
        "youngs_modulus": NaN
    }
}