{
    "hydrogen_H": {
        "allotropes": NaN,
        "alternative_name": NaN,
        "alternative_names": NaN,
        "appearance": "colorless gas",
        "at_t_(k)": NaN,
        "atomic_number": 1,
        "atomic_radius": NaN,
        "atomic_weight": "1.008 (1.00784\u20131.00811)",
        "band_gap": NaN,
        "boiling_point": "20.271 K (?252.879 \u00b0C, ?423.182 \u00b0F)",
        "brinell_hardness": NaN,
        "bulk_modulus": NaN,
        "cas_number": "1333-74-0",
        "color": "colorless",
        "covalent_radius": "31\u00b15 pm",
        "critical_point": "32.938 K, 1.2858 MPa",
        "crystal_structure": "hexagonal",
        "curie_point": NaN,
        "density_at_stp": "0.08988 g/L",
        "density_near_rt": NaN,
        "density_when_liquid_at_mp": NaN,
        "discovery": "Henry Cavendish (1766)",
        "discovery_and_first_isolation": NaN,
        "electrical_resistivity": NaN,
        "electron_configuration": "1s1",
        "electronegativity": "Pauling scale: 2.20",
        "element_category": "diatomic nonmetal",
        "first_isolation": NaN,
        "group_block": "group 1, s-block",
        "heat_of_fusion": "(H2) 0.117 kJ/mol",
        "heat_of_vaporisation": NaN,
        "heat_of_vaporization": "(H2) 0.904 kJ/mol",
        "ionisation_energies": NaN,
        "ionization_energies": "1st: 1312.0 kJ/mol",
        "iso": "iso, NA, half-life, DM, DE (MeV), DP, 1H, 99.98%, 1H is stable with 0 neutrons, 2H, 0.02%, 2H is stable with 1 neutron, 3H, trace, 12.32 y, ??, 0.01861, 3He",
        "magnetic_ordering": "diamagnetic",
        "melting_point": "13.99 K (?259.16 \u00b0C, ?434.49 \u00b0F)",
        "mohs_hardness": NaN,
        "molar_heat_capacity": "(H2) 28.836 J/(mol\u00b7K)",
        "molar_volume": NaN,
        "name": "Hydrogen",
        "named_by": "Antoine Lavoisier (1783)",
        "naming": NaN,
        "oxidation_states": "?1, +1 (an amphoteric oxide)",
        "p_(pa)": "vapor pressure, P (Pa), 1, 10, 100, 1 k, 10 k, 100 k, at T (K), 15, 20",
        "per_shell": "1",
        "period": 1,
        "phase": "gas",
        "poisson_ratio": NaN,
        "prediction": NaN,
        "pronunciation": "/?ha?dr?d??n/, HY-dr?-j?n",
        "proposed_formal_name": NaN,
        "recognised_as_an_element_by": NaN,
        "recognized_as_a_distinct_element_by": NaN,
        "recognized_as_a_unique_metal_by": NaN,
        "recognized_as_an_element_by": NaN,
        "shear_modulus": NaN,
        "speed_of_sound": "1310 m/s (gas, 27 \u00b0C)",
        "speed_of_sound_thin_rod": NaN,
        "sublimation_point": NaN,
        "symbol": "H",
        "tensile_strength": NaN,
        "thermal_conductivity": "0.1805 W/(m\u00b7K)",
        "thermal_diffusivity": NaN,
        "thermal_expansion": NaN,
        "triple_point": "13.8033 K, 7.041 kPa",
        "van_der_waals_radius": "120 pm",
        "vickers_hardness": NaN,
        "when_liquid_at_bp": "0.07099 g/cm3",
        "when_liquid_at_mp": "0.07 g/cm3 (solid: 0.0763 g\u00b7cm?3)",
        "youngs_modulus": NaN
    }
}