{
    "vanadium_V": {
        "allotropes": NaN,
        "alternative_name": NaN,
        "alternative_names": NaN,
        "appearance": "blue-silver-grey metal",
        "at_t_(k)": 2101.0,
        "atomic_number": 23,
        "atomic_radius": "empirical: 134 pm",
        "atomic_weight": "50.9415(1)",
        "band_gap": NaN,
        "boiling_point": "3680 K (3407 \u00b0C, 6165 \u00b0F)",
        "brinell_hardness": "600\u2013742 MPa",
        "bulk_modulus": "160 GPa",
        "cas_number": "7440-62-2",
        "color": NaN,
        "covalent_radius": "153\u00b18 pm",
        "critical_point": NaN,
        "crystal_structure": "body-centered cubic (bcc)",
        "curie_point": NaN,
        "density_at_stp": NaN,
        "density_near_rt": "6.0 g/cm3",
        "density_when_liquid_at_mp": NaN,
        "discovery": "Andr\u00e9s Manuel del R\u00edo (1801)",
        "discovery_and_first_isolation": NaN,
        "electrical_resistivity": "197 n?\u00b7m (at 20 \u00b0C)",
        "electron_configuration": "[Ar] 3d3 4s2",
        "electronegativity": "Pauling scale: 1.63",
        "element_category": "transition metal",
        "first_isolation": "Nils Gabriel Sefstr\u00f6m (1830)",
        "group_block": "group 5, d-block",
        "heat_of_fusion": "21.5 kJ/mol",
        "heat_of_vaporisation": NaN,
        "heat_of_vaporization": "444 kJ/mol",
        "ionisation_energies": NaN,
        "ionization_energies": "1st: 650.9 kJ/mol, 2nd: 1414 kJ/mol, 3rd: 2830 kJ/mol, (more)",
        "iso": "iso, NA, half-life, DM, DE (MeV), DP, 48V, syn, 15.9735 d, ?+, 4.0123, 48Ti, 49V, syn, 330 d, ?, 0.6019, 49Ti, 50V, 0.25%, 1.5\u00d71017 y, ?, 2.2083, 50Ti, ??, 1.0369, 50Cr, 51V, 99.75%, 51V is stable with 28 neutrons",
        "magnetic_ordering": "paramagnetic",
        "melting_point": "2183 K (1910 \u00b0C, 3470 \u00b0F)",
        "mohs_hardness": "6.7",
        "molar_heat_capacity": "24.89 J/(mol\u00b7K)",
        "molar_volume": NaN,
        "name": "Vanadium",
        "named_by": "Nils Gabriel Sefstr\u00f6m (1830)",
        "naming": NaN,
        "oxidation_states": "5, 4, 3, 2, 1, ?1, ?3 (an amphoteric oxide)",
        "p_(pa)": "vapor pressure, P (Pa), 1, 10, 100, 1 k, 10 k, 100 k, at T (K), 2101, 2289, 2523, 2814, 3187, 3679",
        "per_shell": "2, 8, 11, 2",
        "period": 4,
        "phase": "solid",
        "poisson_ratio": "0.37",
        "prediction": NaN,
        "pronunciation": "/v??ne?di?m/, v?-NAY-dee-?m",
        "proposed_formal_name": NaN,
        "recognised_as_an_element_by": NaN,
        "recognized_as_a_distinct_element_by": NaN,
        "recognized_as_a_unique_metal_by": NaN,
        "recognized_as_an_element_by": NaN,
        "shear_modulus": "47 GPa",
        "speed_of_sound": NaN,
        "speed_of_sound_thin_rod": "4560 m/s (at 20 \u00b0C)",
        "sublimation_point": NaN,
        "symbol": "V",
        "tensile_strength": NaN,
        "thermal_conductivity": "30.7 W/(m\u00b7K)",
        "thermal_diffusivity": NaN,
        "thermal_expansion": "8.4 \u00b5m/(m\u00b7K) (at 25 \u00b0C)",
        "triple_point": NaN,
        "van_der_waals_radius": NaN,
        "vickers_hardness": "628\u2013640 MPa",
        "when_liquid_at_bp": NaN,
        "when_liquid_at_mp": "5.5 g/cm3",
        "youngs_modulus": "128 GPa"
    }
}