{
    "bismuth_Bi": {
        "allotropes": NaN,
        "alternative_name": NaN,
        "alternative_names": NaN,
        "appearance": "lustrous brownish silver",
        "at_t_(k)": 941.0,
        "atomic_number": 83,
        "atomic_radius": "empirical: 156 pm",
        "atomic_weight": "208.98040(1)",
        "band_gap": NaN,
        "boiling_point": "1837 K (1564 \u00b0C, 2847 \u00b0F)",
        "brinell_hardness": "70\u201395 MPa",
        "bulk_modulus": "31 GPa",
        "cas_number": "7440-69-9",
        "color": NaN,
        "covalent_radius": "148\u00b14 pm",
        "critical_point": NaN,
        "crystal_structure": "rhombohedral",
        "curie_point": NaN,
        "density_at_stp": NaN,
        "density_near_rt": "9.78 g/cm3",
        "density_when_liquid_at_mp": NaN,
        "discovery": "Claude Fran\u00e7ois Geoffroy (1753)",
        "discovery_and_first_isolation": NaN,
        "electrical_resistivity": "1.29 \u00b5?\u00b7m (at 20 \u00b0C)",
        "electron_configuration": "[Xe] 4f14 5d10 6s2 6p3",
        "electronegativity": "Pauling scale: 2.02",
        "element_category": "post-transition metal",
        "first_isolation": NaN,
        "group_block": "group 15 (pnictogens), p-block",
        "heat_of_fusion": "11.30 kJ/mol",
        "heat_of_vaporisation": NaN,
        "heat_of_vaporization": "179 kJ/mol",
        "ionisation_energies": NaN,
        "ionization_energies": "1st: 703 kJ/mol, 2nd: 1610 kJ/mol, 3rd: 2466 kJ/mol, (more)",
        "iso": "iso, NA, half-life, DM, DE (MeV), DP, 207Bi, syn, 31.55 y, ?+, 2.399, 207Pb, 208Bi, syn, 3.68\u00d7105 y, ?+, 2.880, 208Pb, 209Bi, 100%, 1.9\u00d71019 y, ?, 3.137, 205Tl, 210Bi, trace, 5.012 d, ??, 1.426, 210Po, ?, 5.982, 206Tl, 210mBi, syn, 3.04\u00d7106 y, IT, 0.271, 210Bi, ?, 6.253, 206Tl",
        "magnetic_ordering": "diamagnetic",
        "melting_point": "544.7 K (271.5 \u00b0C, 520.7 \u00b0F)",
        "mohs_hardness": "2.25",
        "molar_heat_capacity": "25.52 J/(mol\u00b7K)",
        "molar_volume": NaN,
        "name": "Bismuth",
        "named_by": NaN,
        "naming": NaN,
        "oxidation_states": "5, 4, 3, 2, 1, ?1, ?2, ?3 (a mildly acidic oxide)",
        "p_(pa)": "vapor pressure, P (Pa), 1, 10, 100, 1 k, 10 k, 100 k, at T (K), 941, 1041, 1165, 1325, 1538, 1835",
        "per_shell": "2, 8, 18, 32, 18, 5",
        "period": 6,
        "phase": "solid",
        "poisson_ratio": "0.33",
        "prediction": NaN,
        "pronunciation": "/?b?zm??/, BIZ-m?th",
        "proposed_formal_name": NaN,
        "recognised_as_an_element_by": NaN,
        "recognized_as_a_distinct_element_by": NaN,
        "recognized_as_a_unique_metal_by": NaN,
        "recognized_as_an_element_by": NaN,
        "shear_modulus": "12 GPa",
        "speed_of_sound": NaN,
        "speed_of_sound_thin_rod": "1790 m/s (at 20 \u00b0C)",
        "sublimation_point": NaN,
        "symbol": "Bi",
        "tensile_strength": NaN,
        "thermal_conductivity": "7.97 W/(m\u00b7K)",
        "thermal_diffusivity": NaN,
        "thermal_expansion": "13.4 \u00b5m/(m\u00b7K) (at 25 \u00b0C)",
        "triple_point": NaN,
        "van_der_waals_radius": "207 pm",
        "vickers_hardness": NaN,
        "when_liquid_at_bp": NaN,
        "when_liquid_at_mp": "10.05 g/cm3",
        "youngs_modulus": "32 GPa"
    }
}