var element_data = {
    "wiki": "https://en.wikipedia.org/wiki/Caesium",
    "video": "https://www.youtube.com/watch?v=5aD6HwUE2c0&list=PL7A1F4CF36C085DE1&index=55",
    "image": "Caesium/caesium.jpg",
    "species": "ALKALINE METALS",
    "symbol": "Cs",
    "latin_name": "Caesium",
    "english_name": "Caesium",
    "year_discovered": "1860",
    "discovered_by": "Robert Wilhelm Bunsen, Gustav Robert Kirchhoff",
    "Electron_shell": [
        {
            "K": 2
        },
        {
            "L": 8
        },
        {
            "M": 18
        },
        {
            "N": 18
        },
        {
            "O": 8
        },
        {
            "P": 1
        },
        {
            "Q": 0
        },
        {
            "R": 0
        }
    ],
    "epn_no": [
        {
            "electrons": 55,
        },
        {
            "protons": 55,
        },
        {
            "neutrons": 78
        }
    ],
    "atomic_number": 56,
    "atomic_weight": "132.905 (g/mol)",
    "density": "1.9 (g/cm³)",
    "melting_point": "28.45 °C = 83.21 °F = 301.60 K",
    "boiling_point": "670.8 °C = 1239.44 °F = 943.95 K",
    "valence_electrons": "1",
    "period": 6,
    "group": "I A",
    "block": "s-block",
    "emission_spectrum": "Barium/Ba.gif",
    "phase": "Solid",
    "phase_icon": "----",
    "fusion_heat": "8 (kJ &middot K)",
    "specific_heat": "205 J/(kg &middot; K)",
    "thermal_expansion": "20.6 &middot; 10<sup>-6</sup>°C<sup>-1</sup>)",
    "vaporization_heat": "65 kJ &middot; mol",
    "electron_configuration": "[Xe] 6s<sup>1</sup>",
    "oxidation_state": "-1, +1",
    "ion_charge": "Cs<sup>+</sup>",
    "ionization_potential": "3.88 ev",
    "atomic_radius": "267 (pm)",
    "covalent_radius": "225 (pm)",
    "van_der_waals_radius": "343 (pm)",
    "electrical_conductivity": "5 &middot; 10<sup>6</sup>",
    "electrical_type": "Conductor", 
    "magnetic_type": "----",
    "volume_susceptibility": "-0.00000526",
    "mass_susceptibility": "-0.00000000028",
    "molar_susceptibility": "3.72 &middot; 10<sup>-10</sup> m<sup>3</sup>/mol",
    "resistivity": "2 &middot; 10<sup>-7</sup> m\u03A9",
    "superconducting_point": "----",
    "lattice_structure": "Caesium/Lattice_body_centered_cubic.svg.png",
    "crystal_structure": "Body-centered cubic",
    "grid": "a=6.140 \u212B;",
    "attitude": "----",
    "debye_temperature": "-233.95 °C = -389.11 °F = 39.2 K",
    "space_group_name": "Im_3m",
    "space_group_number": "229",
    "CAS_number": "CAS7440-46-2",
    "CID_number": "CID5354618",
    "RTEC_number": "RTECSFK9225000",
    "brinell_hardness": "0.14 MPa",
    "mohs_hardness": "0.2",
    "vickers_hardness": "----",
    "bulk_modulus": "1.6 GPa",
    "Young_modulus": "1.7 GPa",
    "liquid_density": "1.843 (g/cm<sup>3</sup>)",
    "molar_volume": "70 (cm<sup>3</sup>/mol)",
    "poisson_ratio": "----",
    "shear_modulus": "---- GPa",
    "sound_speed": "---- m/s",
    "refractive_index": "----",
    "thermal_conductivity": "36 W/mK",
    "electronegative": "Pauling Scale 0.79",
    "electron_affinity": "45.5 KJ/mol",
    "radioactivity": "no",
    "half_life": "\u221E",
    "life_time": "\u221E",
    "barn": "29 b",
    "hazard_block": [
        {
            "red": "-"
        },
        {
            "yellow": "-"
        },
        {
            "blue": "-"
        },
        {
            "white": "-"
        }
    ],
    "fire_hazard": "----",
    "health_hazard":"----",
    "reactivity": "----",
    "specific": "Use no water",
    "universe_contains": "8 &middot; 10<sup>-8</sup> %",
    "sun_contains": "8 &middot; 10<sup>-7</sup> %",
    "oceans_contains": "5 &middot; 10<sup>-8</sup> %",
    "human_body_contains": "2 &middot; 10<sup>-6</sup> %",
    "earth_crust_contains": "0.00019 %",
    "meteorites_contains": "0.000014 %",
    "start_isotope_number": 112,
    "stop_isotope_number": 151,
    "half_life_number": ["500 &micro;s", "16.7 &micro;s", "570 ms", "1.4 s", "700 ms", "8.4 s", "14 s", "43 s", "61.2", "155 s", "21.18 s", "5.88 m", "30.9 s", "46.7 m", "1.64 m", "6.25 hours", "3.640 m", "32.06 hours", "29.21 m", "9.689 day", "6.480 day", "stable", "2.0652 years", "2300000 years", "13.16 day", "30.1671", "33.41 m", "9.27 m", "63.7 s", "24.84 s", "1.689 s", "1.791 s", "994 ms", "582 ms", "321 ms", "235 ms", "146 ms", "150 ms", "100 ms", "60 ms"],
    "iso_weight": [111.95030, 112.94449, 113.94145, 114.93591, 115.93337, 116.9286, 117.92655, 118.92237, 119.92237, 120.61722, 121.912996, 122.912258, 124.909728, 125.909452, 126.907418, 127.907749, 128.906064, 129.906709, 130.905464, 131.906434, 132.905451, 133.906718, 134.905977, 135.907311, 136.907089, 137.911017, 138.913364, 139.917282, 140.920046, 141.924299, 142.927352, 143.932077, 144.935526, 145.94029, 146.94416, 147.94922, 148.95293, 149.95817, 150.96219]
}