{
    "caesium_Cs": {
        "allotropes": NaN,
        "alternative_name": "cesium",
        "alternative_names": NaN,
        "appearance": "pale gold",
        "at_t_(k)": NaN,
        "atomic_number": 55,
        "atomic_radius": "empirical: 265 pm",
        "atomic_weight": "132.90545196(6)",
        "band_gap": NaN,
        "boiling_point": "944 K (671 \u00b0C, 1240 \u00b0F)",
        "brinell_hardness": "0.14 MPa",
        "bulk_modulus": "1.6 GPa",
        "cas_number": "7440-46-2",
        "color": NaN,
        "covalent_radius": "244\u00b111 pm",
        "critical_point": "1938 K, 9.4 MPa",
        "crystal_structure": "body-centred cubic (bcc)",
        "curie_point": NaN,
        "density_at_stp": NaN,
        "density_near_rt": "1.93 g/cm3",
        "density_when_liquid_at_mp": NaN,
        "discovery": "Robert Bunsen and Gustav Kirchhoff (1860)",
        "discovery_and_first_isolation": NaN,
        "electrical_resistivity": "205 n?\u00b7m (at 20 \u00b0C)",
        "electron_configuration": "[Xe] 6s1",
        "electronegativity": "Pauling scale: 0.79",
        "element_category": "alkali metal",
        "first_isolation": "Carl Setterberg (1882)",
        "group_block": "group 1 (alkali metals), s-block",
        "heat_of_fusion": "2.09 kJ/mol",
        "heat_of_vaporisation": NaN,
        "heat_of_vaporization": "63.9 kJ/mol",
        "ionisation_energies": NaN,
        "ionization_energies": "1st: 375.7 kJ/mol, 2nd: 2234.3 kJ/mol, 3rd: 3400 kJ/mol",
        "iso": "iso, NA, half-life, DM, DE (MeV), DP, 133Cs, 100%, 133Cs is stable with 78 neutrons, 134Cs, syn, 2.0648 y, ?, 1.229, 134Xe, ??, 2.059, 134Ba, 135Cs, trace, 2.3\u00d7106 y, ??, 0.269, 135Ba, 137Cs, syn, 30.17 y, ??, 1.174, 137Ba",
        "magnetic_ordering": "paramagnetic",
        "melting_point": "301.7 K (28.5 \u00b0C, 83.3 \u00b0F)",
        "mohs_hardness": "0.2",
        "molar_heat_capacity": "32.210 J/(mol\u00b7K)",
        "molar_volume": NaN,
        "name": "Cesium",
        "named_by": NaN,
        "naming": "from Latin caesius, sky blue, for its spectral colours",
        "oxidation_states": "+1, ?1 (a strongly basic oxide)",
        "p_(pa)": NaN,
        "per_shell": "2, 8, 18, 18, 8, 1",
        "period": 6,
        "phase": "solid",
        "poisson_ratio": NaN,
        "prediction": NaN,
        "pronunciation": "/?si?zi?m/, SEE-zee-?m",
        "proposed_formal_name": NaN,
        "recognised_as_an_element_by": NaN,
        "recognized_as_a_distinct_element_by": NaN,
        "recognized_as_a_unique_metal_by": NaN,
        "recognized_as_an_element_by": NaN,
        "shear_modulus": NaN,
        "speed_of_sound": NaN,
        "speed_of_sound_thin_rod": NaN,
        "sublimation_point": NaN,
        "symbol": "Cs",
        "tensile_strength": NaN,
        "thermal_conductivity": "35.9 W/(m\u00b7K)",
        "thermal_diffusivity": NaN,
        "thermal_expansion": "97 \u00b5m/(m\u00b7K) (at 25 \u00b0C)",
        "triple_point": NaN,
        "van_der_waals_radius": "343 pm",
        "vickers_hardness": NaN,
        "when_liquid_at_bp": NaN,
        "when_liquid_at_mp": "1.843 g/cm3",
        "youngs_modulus": "1.7 GPa"
    }
}