{
    "polonium_Po": {
        "allotropes": "?, ?",
        "alternative_name": NaN,
        "alternative_names": NaN,
        "appearance": "silvery",
        "at_t_(k)": NaN,
        "atomic_number": 84,
        "atomic_radius": "empirical: 168 pm",
        "atomic_weight": "(209)",
        "band_gap": NaN,
        "boiling_point": "1235 K (962 \u00b0C, 1764 \u00b0F)",
        "brinell_hardness": NaN,
        "bulk_modulus": NaN,
        "cas_number": "7440-08-6",
        "color": NaN,
        "covalent_radius": "140\u00b14 pm",
        "critical_point": NaN,
        "crystal_structure": "rhombohedral, ?-Po",
        "curie_point": NaN,
        "density_at_stp": NaN,
        "density_near_rt": "alpha: 9.196 g/cm3, beta: 9.398 g/cm3",
        "density_when_liquid_at_mp": NaN,
        "discovery": "Pierre and Marie Curie (1898)",
        "discovery_and_first_isolation": NaN,
        "electrical_resistivity": "?: 0.40 \u00b5?\u00b7m (at 0 \u00b0C)",
        "electron_configuration": "[Xe] 4f14 5d10 6s2 6p4",
        "electronegativity": "Pauling scale: 2.0",
        "element_category": "post-transition metal, but this status is disputed",
        "first_isolation": "Willy Marckwald (1902)",
        "group_block": "group 16 (chalcogens), p-block",
        "heat_of_fusion": "ca. 13 kJ/mol",
        "heat_of_vaporisation": NaN,
        "heat_of_vaporization": "102.91 kJ/mol",
        "ionisation_energies": NaN,
        "ionization_energies": "1st: 812.1 kJ/mol",
        "iso": "iso, NA, half-life, DM, DE (MeV), DP, 208Po, syn, 2.898 y, ?, 5.215, 204Pb, ?+, 1.401, 208Bi, 209Po, syn, (125.2\u00b13.3) y, ?, 4.979, 205Pb, ?+, 1.893, 209Bi, 210Po, trace, 138.376 d, ?, 5.307, 206Pb",
        "magnetic_ordering": "nonmagnetic",
        "melting_point": "527 K (254 \u00b0C, 489 \u00b0F)",
        "mohs_hardness": NaN,
        "molar_heat_capacity": "26.4 J/(mol\u00b7K)",
        "molar_volume": NaN,
        "name": "Polonium",
        "named_by": NaN,
        "naming": "after Polonia, Latin for Poland, homeland of Marie Curie",
        "oxidation_states": "6, 5, 4, 2, ?2 (an amphoteric oxide)",
        "p_(pa)": "vapor pressure, P (Pa), 1, 10, 100, 1 k, 10 k, 100 k, at T (K), (846), 1003, 1236",
        "per_shell": "2, 8, 18, 32, 18, 6",
        "period": 6,
        "phase": "solid",
        "poisson_ratio": NaN,
        "prediction": NaN,
        "pronunciation": "/po??lo?ni?m/, po-LOH-nee-?m",
        "proposed_formal_name": NaN,
        "recognised_as_an_element_by": NaN,
        "recognized_as_a_distinct_element_by": NaN,
        "recognized_as_a_unique_metal_by": NaN,
        "recognized_as_an_element_by": NaN,
        "shear_modulus": NaN,
        "speed_of_sound": NaN,
        "speed_of_sound_thin_rod": NaN,
        "sublimation_point": NaN,
        "symbol": "Po",
        "tensile_strength": NaN,
        "thermal_conductivity": "20 W/(m\u00b7K) (?)",
        "thermal_diffusivity": NaN,
        "thermal_expansion": "23.5 \u00b5m/(m\u00b7K) (at 25 \u00b0C)",
        "triple_point": NaN,
        "van_der_waals_radius": "197 pm",
        "vickers_hardness": NaN,
        "when_liquid_at_bp": NaN,
        "when_liquid_at_mp": NaN,
        "youngs_modulus": NaN
    }
}