var element_data = {
    "wiki": "https://en.wikipedia.org/wiki/Tin",
    "video": "https://www.youtube.com/watch?v=rXZscASelkc&list=PL7A1F4CF36C085DE1&index=50",
    "image": "Tin/tin.jpg",
    "species": "POST-TRANSITION METAL",
    "symbol": "Sn",
    "latin_name": "Stannum",
    "english_name": "Tin",
    "year_discovered": "----",
    "discovered_by": "----",
    "Electron_shell": [
        {
            "K": 2
        },
        {
            "L": 8
        },
        {
            "M": 18
        },
        {
            "N": 18
        },
        {
            "O": 4
        },
        {
            "P": 0
        },
        {
            "Q": 0
        },
        {
            "R": 0
        }
    ],
    "epn_no": [
        {
            "electrons": 50,
        },
        {
            "protons": 50,
        },
        {
            "neutrons": 69
        }
    ],
    "atomic_number": 50,
    "atomic_weight": "118.710 (g/mol)",
    "density": "7.29 (g/cm³)",
    "melting_point": "231.93 °C = 449.47 °F = 505.08 K",
    "boiling_point": "2602 °C = 4715.60 °F = 2875.15 K",
    "valence_electrons": 4,
    "period": 5,
    "group": "IV A",
    "block": "p-block",
    "emission_spectrum": "Tin/Sn.gif",
    "phase": "Solid",
    "phase_icon": "----",
    "fusion_heat": "7 (kJ &middot K)",
    "specific_heat": "217 J/(kg &middot; K)",
    "thermal_expansion": "22 &middot; 10<sup>-6</sup>°C<sup>-1</sup>)",
    "vaporization_heat": "290 kJ &middot; mol",
    "electron_configuration": "[Kr] 4d<sup>10</sup> 5s<sup>2</sup> 5p<sup>2</sup>",
    "oxidation_state": "-4, -3, -2, -1, +1, +2, +3, +4",
    "ion_charge": "Sn<sup>2+</sup>, Sn<sup>4+</sup>",
    "ionization_potential": "7.37 eV",
    "atomic_radius": "162 (pm)",
    "covalent_radius": "141 (pm)",
    "van_der_waals_radius": "217 (pm)",
    "electrical_conductivity": "9.1 &middot; 10<sup>6</sup>",
    "electrical_type": "Conductor", 
    "magnetic_type": "Paramagnetic",
    "volume_susceptibility": "-0.000227",
    "mass_susceptibility": "-0.0000000031",
    "molar_susceptibility": "-3.68 &middot; 10<sup>-10</sup> m<sup>3</sup>/mol",
    "resistivity": "1.09 &middot; 10<sup>-7</sup> m\u03A9",
    "superconducting_point": "-269.43 °C = -452.97 °F = 3.72 K",
    "lattice_structure": "Tin/Tetragonal.png",
    "crystal_structure": "Tetragonal",
    "grid": "a=5.831 \u212B; c=3.181 \u212B",
    "attitude": "0.546",
    "debye_temperature": "-103.15 °C = -153.67 °F = 170 K",
    "space_group_name": "----",
    "space_group_number": "141",
    "CAS_number": "CAS7440-38-2",
    "CID_number": "CID5352426",
    "RTEC_number": "RTECSXP7320000",
    "brinell_hardness": "50-440 MPa",
    "mohs_hardness": "1.5",
    "vickers_hardness": "----",
    "bulk_modulus": "58 GPa",
    "Young_modulus": "50 GPa",
    "liquid_density": "6.99 (g/cm<sup>3</sup>)",
    "molar_volume": "16.3 (cm<sup>3</sup>/mol)",
    "poisson_ratio": "0.36 &micro;",
    "shear_modulus": "18 GPa",
    "sound_speed": "2500 m/s",
    "refractive_index": "----",
    "thermal_conductivity": "1.96 W/mK",
    "electronegative": "Pauling Scale 2.18",
    "electron_affinity": "107.3 KJ/mol",
    "radioactivity": "no",
    "half_life": "\u221E",
    "life_time": "\u221E",
    "barn": "0.63 b",
    "hazard_block": [
        {
            "red": "3"
        },
        {
            "yellow": "3"
        },
        {
            "blue": "1"
        },
        {
            "white": "-"
        }
    ],
    "fire_hazard": "Below 37.7 °C",
    "health_hazard":"Slightly hazardous",
    "reactivity": "Shock and heat may detonate",
    "specific": "----",
    "universe_contains": "4 &middot; 10<sup>-7</sup> %",
    "sun_contains": "9 &middot; 10<sup>-7</sup> %",
    "oceans_contains": "9.9 &middot; 10<sup>-10</sup> %",
    "human_body_contains": "0.00002 %",
    "earth_crust_contains": "0.00022 %",
    "meteorites_contains": "0.00012 %",
    "start_isotope_number": 99,
    "stop_isotope_number": 104,
    "half_life_number": ["5 ms", "1.1 s", "3 s", "4.5 s", "7 s", "20.8 s"],
    "iso_weight": [98.94933, 99.93904, 100.93606, 101.93030, 102.92810, 103.92314]
}