{
    "tin_Sn": {
        "allotropes": "alpha, ? (gray); beta, ? (white)",
        "alternative_name": NaN,
        "alternative_names": NaN,
        "appearance": "silvery-white (beta, ?) or gray (alpha, ?)",
        "at_t_(k)": 1497.0,
        "atomic_number": 50,
        "atomic_radius": "empirical: 140 pm",
        "atomic_weight": "118.710(7)",
        "band_gap": NaN,
        "boiling_point": "2875 K (2602 \u00b0C, 4716 \u00b0F)",
        "brinell_hardness": "50\u2013440 MPa",
        "bulk_modulus": "58 GPa",
        "cas_number": "7440-31-5",
        "color": NaN,
        "covalent_radius": "139\u00b14 pm",
        "critical_point": NaN,
        "crystal_structure": "face-centered diamond-cubic, gray (?)",
        "curie_point": NaN,
        "density_at_stp": NaN,
        "density_near_rt": "white, ?: 7.265 g/cm3\ngray, ?: 5.769 g/cm3",
        "density_when_liquid_at_mp": NaN,
        "discovery": "around 3500 BC",
        "discovery_and_first_isolation": NaN,
        "electrical_resistivity": "115 n?\u00b7m (at 0 \u00b0C)",
        "electron_configuration": "[Kr] 4d10 5s2 5p2",
        "electronegativity": "Pauling scale: 1.96",
        "element_category": "post-transition metal",
        "first_isolation": NaN,
        "group_block": "group 14 (carbon group), p-block",
        "heat_of_fusion": "white, ?: 7.03 kJ/mol",
        "heat_of_vaporisation": NaN,
        "heat_of_vaporization": "white, ?: 296.1 kJ/mol",
        "ionisation_energies": NaN,
        "ionization_energies": "1st: 708.6 kJ/mol, 2nd: 1411.8 kJ/mol, 3rd: 2943.0 kJ/mol",
        "iso": "iso, NA, half-life, DM, DE (MeV), DP, 112Sn, 0.97%, 112Sn is stable with 62 neutrons, 114Sn, 0.66%, 114Sn is stable with 64 neutrons, 115Sn, 0.34%, 115Sn is stable with 65 neutrons, 116Sn, 14.54%, 116Sn is stable with 66 neutrons, 117Sn, 7.68%, 117Sn is stable with 67 neutrons, 118Sn, 24.22%, 118Sn is stable with 68 neutrons, 119Sn, 8.59%, 119Sn is stable with 69 neutrons, 120Sn, 32.58%, 120Sn is stable with 70 neutrons, 122Sn, 4.63%, 122Sn is stable with 72 neutrons, 124Sn, 5.79%, 124Sn is stable with 74 neutrons, 126Sn, trace, 2.3\u00d7105 y, ??, 0.380 +, 126Sb",
        "magnetic_ordering": "gray: diamagnetic, white (?): paramagnetic",
        "melting_point": "505.08 K (231.93 \u00b0C, 449.47 \u00b0F)",
        "mohs_hardness": NaN,
        "molar_heat_capacity": "white, ?: 27.112 J/(mol\u00b7K)",
        "molar_volume": NaN,
        "name": "Tin",
        "named_by": NaN,
        "naming": NaN,
        "oxidation_states": "4, 3, 2, 1, ?1, ?2, ?3, ?4 (an amphoteric oxide)",
        "p_(pa)": "vapor pressure, P (Pa), 1, 10, 100, 1 k, 10 k, 100 k, at T (K), 1497, 1657, 1855, 2107, 2438, 2893",
        "per_shell": "2, 8, 18, 18, 4",
        "period": 5,
        "phase": "solid",
        "poisson_ratio": "0.36",
        "prediction": NaN,
        "pronunciation": "/?t?n/, TIN",
        "proposed_formal_name": NaN,
        "recognised_as_an_element_by": NaN,
        "recognized_as_a_distinct_element_by": NaN,
        "recognized_as_a_unique_metal_by": NaN,
        "recognized_as_an_element_by": NaN,
        "shear_modulus": "18 GPa",
        "speed_of_sound": NaN,
        "speed_of_sound_thin_rod": "2730 m/s (at r.t.) (rolled)",
        "sublimation_point": NaN,
        "symbol": "Sn",
        "tensile_strength": NaN,
        "thermal_conductivity": "66.8 W/(m\u00b7K)",
        "thermal_diffusivity": NaN,
        "thermal_expansion": "22.0 \u00b5m/(m\u00b7K) (at 25 \u00b0C)",
        "triple_point": NaN,
        "van_der_waals_radius": "217 pm",
        "vickers_hardness": NaN,
        "when_liquid_at_bp": NaN,
        "when_liquid_at_mp": "6.99 g/cm3",
        "youngs_modulus": "50 GPa"
    }
}