{
    "lanthanum_La": {
        "allotropes": NaN,
        "alternative_name": NaN,
        "alternative_names": NaN,
        "appearance": "silvery white",
        "at_t_(k)": 2005.0,
        "atomic_number": 57,
        "atomic_radius": "empirical: 187 pm",
        "atomic_weight": "138.90547(7)",
        "band_gap": NaN,
        "boiling_point": "3737 K (3464 \u00b0C, 6267 \u00b0F)",
        "brinell_hardness": "350\u2013400 MPa",
        "bulk_modulus": "? form: 27.9 GPa",
        "cas_number": "7439-91-0",
        "color": NaN,
        "covalent_radius": "207\u00b18 pm",
        "critical_point": NaN,
        "crystal_structure": "double hexagonal close-packed (dhcp)",
        "curie_point": NaN,
        "density_at_stp": NaN,
        "density_near_rt": "6.162 g/cm3",
        "density_when_liquid_at_mp": NaN,
        "discovery": "Carl Gustaf Mosander (1838)",
        "discovery_and_first_isolation": NaN,
        "electrical_resistivity": "?, poly: 615 n?\u00b7m (at r.t.)",
        "electron_configuration": "[Xe] 5d1 6s2",
        "electronegativity": "Pauling scale: 1.10",
        "element_category": "lanthanide, sometimes considered a transition metal",
        "first_isolation": NaN,
        "group_block": "group n/a, f-block",
        "heat_of_fusion": "6.20 kJ/mol",
        "heat_of_vaporisation": NaN,
        "heat_of_vaporization": "400 kJ/mol",
        "ionisation_energies": NaN,
        "ionization_energies": "1st: 538.1 kJ/mol, 2nd: 1067 kJ/mol, 3rd: 1850.3 kJ/mol",
        "iso": "iso, NA, half-life, DM, DE (MeV), DP, 137La, syn, 6\u00d7104 y, ?, 0.600, 137Ba, 138La, 0.089%, 1.05\u00d71011 y, ?, 1.737, 138Ba, ??, 1.044, 138Ce, 139La, 99.911%, 139La is stable with 82 neutrons",
        "magnetic_ordering": "paramagnetic",
        "melting_point": "1193 K (920 \u00b0C, 1688 \u00b0F)",
        "mohs_hardness": "2.5",
        "molar_heat_capacity": "27.11 J/(mol\u00b7K)",
        "molar_volume": NaN,
        "name": "Lanthanum",
        "named_by": NaN,
        "naming": NaN,
        "oxidation_states": "3, 2, 1 (a strongly basic oxide)",
        "p_(pa)": "vapor pressure (extrapolated), P (Pa), 1, 10, 100, 1 k, 10 k, 100 k, at T (K), 2005, 2208, 2458, 2772, 3178, 3726",
        "per_shell": "2, 8, 18, 18, 9, 2",
        "period": 6,
        "phase": "solid",
        "poisson_ratio": "? form: 0.280",
        "prediction": NaN,
        "pronunciation": "/?l\u00e6n??n?m/",
        "proposed_formal_name": NaN,
        "recognised_as_an_element_by": NaN,
        "recognized_as_a_distinct_element_by": NaN,
        "recognized_as_a_unique_metal_by": NaN,
        "recognized_as_an_element_by": NaN,
        "shear_modulus": "? form: 14.3 GPa",
        "speed_of_sound": NaN,
        "speed_of_sound_thin_rod": "2475 m/s (at 20 \u00b0C)",
        "sublimation_point": NaN,
        "symbol": "La",
        "tensile_strength": NaN,
        "thermal_conductivity": "13.4 W/(m\u00b7K)",
        "thermal_diffusivity": NaN,
        "thermal_expansion": "?, poly: 12.1 \u00b5m/(m\u00b7K) (at r.t.)",
        "triple_point": NaN,
        "van_der_waals_radius": NaN,
        "vickers_hardness": "360\u20131750 MPa",
        "when_liquid_at_bp": NaN,
        "when_liquid_at_mp": "5.94 g/cm3",
        "youngs_modulus": "? form: 36.6 GPa"
    }
}