var element_data = {
    "wiki": "https://en.wikipedia.org/wiki/Lanthanum",
    "video": "https://www.youtube.com/watch?v=Q21clW0s0B8&list=PL7A1F4CF36C085DE1&index=57",
    "image": "Lanthanum/lanthanum.jpg",
    "species": "ALKALINE EARTH METALS",
    "symbol": "La",
    "latin_name": "Lanthanum",
    "english_name": "Lanthanum",
    "year_discovered": "1839",
    "discovered_by": "Carl Gustaf Mosander",
    "Electron_shell": [
        {
            "K": 2
        },
        {
            "L": 8
        },
        {
            "M": 18
        },
        {
            "N": 18
        },
        {
            "O": 9
        },
        {
            "P": 2
        },
        {
            "Q": 0
        },
        {
            "R": 0
        }
    ],
    "epn_no": [
        {
            "electrons": 57,
        },
        {
            "protons": 57,
        },
        {
            "neutrons": 82
        }
    ],
    "atomic_number": 57,
    "atomic_weight": "138.905 (g/mol)",
    "density": "6.16 (g/cm³)",
    "melting_point": "920 °C = 1688.00 °F = 1193.15 K",
    "boiling_point": "3464 °C = 6267.20 °F = 3737.15 K",
    "valence_electrons": "3",
    "period": 6,
    "group": "III A",
    "block": "d-block",
    "emission_spectrum": "Lanthanum/La.gif",
    "phase": "Solid",
    "phase_icon": "----",
    "fusion_heat": "6.2 (kJ &middot K)",
    "specific_heat": "195 J/(kg &middot; K)",
    "thermal_expansion": "12.1 &middot; 10<sup>-6</sup>°C<sup>-1</sup>)",
    "vaporization_heat": "400 kJ &middot; mol",
    "electron_configuration": "[Xe] 5d<sup>1</sup>6s<sup>2</sup>",
    "oxidation_state": "+1, +2, +3",
    "ion_charge": "La<sup>3+</sup>",
    "ionization_potential": "5.5 eV",
    "atomic_radius": "187 (pm)",
    "covalent_radius": "169 (pm)",
    "van_der_waals_radius": "---- (pm)",
    "electrical_conductivity": "1.6 &middot; 10<sup>6</sup>",
    "electrical_type": "Conductor", 
    "magnetic_type": "----",
    "volume_susceptibility": "0.00006761",
    "mass_susceptibility": "0.000000011",
    "molar_susceptibility": "1.528 &middot; 10<sup>-9</sup> m<sup>3</sup>/mol",
    "resistivity": "6.1 &middot; 10<sup>-7</sup> m\u03A9",
    "superconducting_point": "-268.27 °C = -450.89 °F = 4.88 K",
    "lattice_structure": "Lanthanum/Double-Hexagonal-Close-Packed.png",
    "crystal_structure": "Double hexagonal close-packed",
    "grid": "a=3.772 \u212B; c=12.14 \u212B",
    "attitude": "3.22",
    "debye_temperature": "11.85 °C = 53.33 °F = 285 K",
    "space_group_name": "----",
    "space_group_number": "194",
    "CAS_number": "CAS7439-91-0",
    "CID_number": "CID23926",
    "RTEC_number": "----",
    "brinell_hardness": "350-400 MPa",
    "mohs_hardness": "2.5",
    "vickers_hardness": "360-1750 MPa",
    "bulk_modulus": "22 GPa",
    "Young_modulus": "8 GPa",
    "liquid_density": "5.22 (g/cm<sup>3</sup>)",
    "molar_volume": "13.1 (cm<sup>3</sup>/mol)",
    "poisson_ratio": "0.28 &micro;",
    "shear_modulus": "14 GPa",
    "sound_speed": "2475 m/s",
    "refractive_index": "----",
    "thermal_conductivity": "13 W/mK",
    "electronegative": "Pauling Scale 1.1",
    "electron_affinity": "48 KJ/mol",
    "radioactivity": "no",
    "half_life": "\u221E",
    "life_time": "\u221E",
    "barn": "8.98 b",
    "hazard_block": [
        {
            "red": "-"
        },
        {
            "yellow": "-"
        },
        {
            "blue": "-"
        },
        {
            "white": "-"
        }
    ],
    "fire_hazard": "----",
    "health_hazard":"----",
    "reactivity": "----",
    "specific": "----",
    "universe_contains": "2 &middot; 10<sup>-7</sup> %",
    "sun_contains": "2 &middot; 10<sup>-7</sup> %",
    "oceans_contains": "3.4 &middot; 10<sup>-6</sup> %",
    "human_body_contains": "---- %",
    "earth_crust_contains": "0.0034 %",
    "meteorites_contains": "0.000028 %",
    "start_isotope_number": 117,
    "stop_isotope_number": 120,
    "half_life_number": ["23.5 ms", "200 ms", "1 s", "2.8 s"],
    "iso_weight": [116.68007, 117.94673, 118.94099, 119.93807]
}