{
    "nickel_Ni": {
        "allotropes": NaN,
        "alternative_name": NaN,
        "alternative_names": NaN,
        "appearance": "lustrous, metallic, and silver with a gold tinge",
        "at_t_(k)": 1783.0,
        "atomic_number": 28,
        "atomic_radius": "empirical: 124 pm",
        "atomic_weight": "58.6934(4)",
        "band_gap": NaN,
        "boiling_point": "3003 K (2730 \u00b0C, 4946 \u00b0F)",
        "brinell_hardness": "667\u20131600 MPa",
        "bulk_modulus": "180 GPa",
        "cas_number": "7440-02-0",
        "color": NaN,
        "covalent_radius": "124\u00b14 pm",
        "critical_point": NaN,
        "crystal_structure": "face-centered cubic (fcc)",
        "curie_point": NaN,
        "density_at_stp": NaN,
        "density_near_rt": "8.908 g/cm3",
        "density_when_liquid_at_mp": NaN,
        "discovery": NaN,
        "discovery_and_first_isolation": "Axel Fredrik Cronstedt (1751)",
        "electrical_resistivity": "69.3 n?\u00b7m (at 20 \u00b0C)",
        "electron_configuration": "[Ar] 3d8 4s2 or, [Ar] 3d9 4s1",
        "electronegativity": "Pauling scale: 1.91",
        "element_category": "transition metal",
        "first_isolation": NaN,
        "group_block": "group 10, d-block",
        "heat_of_fusion": "17.48 kJ/mol",
        "heat_of_vaporisation": NaN,
        "heat_of_vaporization": "379 kJ/mol",
        "ionisation_energies": NaN,
        "ionization_energies": "1st: 737.1 kJ/mol, 2nd: 1753.0 kJ/mol, 3rd: 3395 kJ/mol, (more)",
        "iso": "iso, NA, half-life, DM, DE (MeV), DP, 58Ni, 68.077%, 58Ni is stable with 30 neutrons, 59Ni, trace, 7.6\u00d7104 y, ?, 0.0506, 59Co, 60Ni, 26.223%, 60Ni is stable with 32 neutrons, 61Ni, 1.140%, 61Ni is stable with 33 neutrons, 62Ni, 3.635%, 62Ni is stable with 34 neutrons, 63Ni, syn, 100.1 y, ??, 0.0669, 63Cu, 64Ni, 0.926%, 64Ni is stable with 36 neutrons",
        "magnetic_ordering": "ferromagnetic",
        "melting_point": "1728 K (1455 \u00b0C, 2651 \u00b0F)",
        "mohs_hardness": "4",
        "molar_heat_capacity": "26.07 J/(mol\u00b7K)",
        "molar_volume": NaN,
        "name": "Nickel",
        "named_by": NaN,
        "naming": NaN,
        "oxidation_states": "4, 3, 2, 1, ?1, ?2 (a mildly basic oxide)",
        "p_(pa)": "vapor pressure, P (Pa), 1, 10, 100, 1 k, 10 k, 100 k, at T (K), 1783, 1950, 2154, 2410, 2741, 3184",
        "per_shell": "2, 8, 16, 2 or 2, 8, 17, 1",
        "period": 4,
        "phase": "solid",
        "poisson_ratio": "0.31",
        "prediction": NaN,
        "pronunciation": "/?n?k?l/, NIK-?l",
        "proposed_formal_name": NaN,
        "recognised_as_an_element_by": NaN,
        "recognized_as_a_distinct_element_by": NaN,
        "recognized_as_a_unique_metal_by": NaN,
        "recognized_as_an_element_by": NaN,
        "shear_modulus": "76 GPa",
        "speed_of_sound": NaN,
        "speed_of_sound_thin_rod": "4900 m/s (at r.t.)",
        "sublimation_point": NaN,
        "symbol": "Ni",
        "tensile_strength": NaN,
        "thermal_conductivity": "90.9 W/(m\u00b7K)",
        "thermal_diffusivity": NaN,
        "thermal_expansion": "13.4 \u00b5m/(m\u00b7K) (at 25 \u00b0C)",
        "triple_point": NaN,
        "van_der_waals_radius": "163 pm",
        "vickers_hardness": "638 MPa",
        "when_liquid_at_bp": NaN,
        "when_liquid_at_mp": "7.81 g/cm3",
        "youngs_modulus": "200 GPa"
    }
}