var element_data = {
    "wiki": "https://en.wikipedia.org/wiki/Nickel",
    "video": "https://www.youtube.com/watch?v=AUmoaZn9bek&list=PL7A1F4CF36C085DE1&index=28",
    "image": "Nickel/nickel.jpg",
    "species": "ALKALINE EARTH METALS",
    "symbol": "Ni",
    "latin_name": "Niccolum",
    "english_name": "Nickel",
    "year_discovered": "1751",
    "discovered_by": "Axel Frederic von Cronstedt",
    "Electron_shell": [
        {
            "K": 2
        },
        {
            "L": 8
        },
        {
            "M": 16
        },
        {
            "N": 2
        },
        {
            "O": 0
        },
        {
            "P": 0
        },
        {
            "Q": 0
        },
        {
            "R": 0
        }
    ],
    "epn_no": [
        {
            "electrons": 28,
        },
        {
            "protons": 28,
        },
        {
            "neutrons": 31
        }
    ],
    "atomic_number": 28,
    "atomic_weight": "58.6934 (g/mol)",
    "density": "8.902 (g/cm³)",
    "melting_point": "1455 °C = 2651.00 °F = 1728.15 K",
    "boiling_point": "2915 °C = 5279.00 °F = 3188.15 K",
    "valence_electrons": "2",
    "period": 4,
    "group": "VIII B",
    "block": "d-block",
    "emission_spectrum": "Nickel/Ni.gif",
    "phase": "Solid",
    "phase_icon": "----",
    "fusion_heat": "17.2 (kJ &middot K)",
    "specific_heat": "445 J/(kg &middot; K)",
    "thermal_expansion": "13.4 &middot; 10<sup>-6</sup> °C<sup>-1</sup>)",
    "vaporization_heat": "378 kJ &middot; mol",
    "electron_configuration": "[Ar] 3d<sup>8</sup> 4s<sup>2</sup>",
    "oxidation_state": "-2, -1, +1, +2, +3, +4",
    "ion_charge": "Ni<sup>2+</sup>, Ni<sup>3+</sup>",
    "ionization_potential": "7.61 eV",
    "atomic_radius": "124 (pm)",
    "covalent_radius": "121 (pm)",
    "van_der_waals_radius": "163 (pm)",
    "electrical_conductivity": "1.4 &middot; 10<sup>7</sup>",
    "electrical_type": "Conductor", 
    "magnetic_type": "Anitferromagnetic",
    "volume_susceptibility": "----",
    "mass_susceptibility": "----",
    "molar_susceptibility": "---- m<sup>3</sup>/mol",
    "resistivity": "7 &middot; 10<sup>-8</sup> m\u03A9",
    "superconducting_point": "----",
    "lattice_structure": "Nickel/Cubic-face-centered.svg.png",
    "crystal_structure": "Face-centered cubic",
    "grid": "a=3.524 \u212B",
    "attitude": "----",
    "debye_temperature": "101.85 °C = 215.33 °F = 375 K",
    "space_group_name": "Fm_3m",
    "space_group_number": "225",
    "CAS_number": "CAS7440-02-0",
    "CID_number": "CID935",
    "RTEC_number": "RTECSQR5950000",
    "brinell_hardness": "667-1600 MPa",
    "mohs_hardness": "4",
    "vickers_hardness": "638 MPa",
    "bulk_modulus": "180 GPa",
    "Young_modulus": "200 GPa",
    "liquid_density": "7.81 (g/cm<sup>3</sup>)",
    "molar_volume": "7.1 (cm<sup>3</sup>/mol)",
    "poisson_ratio": "0.31 &micro;",
    "shear_modulus": "76 GPa",
    "sound_speed": "4970 m/s",
    "refractive_index": "----",
    "thermal_conductivity": "91 W/mK",
    "electronegative": "Pauling Scale 1.91",
    "electron_affinity": "112 KJ/mol",
    "radioactivity": "no",
    "half_life": "\u221E",
    "life_time": "\u221E",
    "barn": "37.2 b",
    "hazard_block": [
        {
            "red": "2"
        },
        {
            "yellow": "-"
        },
        {
            "blue": "3"
        },
        {
            "white": "-"
        }
    ],
    "fire_hazard": "Below 22.7°C",
    "health_hazard":"Hazardous",
    "reactivity": "Unstable if heated",
    "specific": "----",
    "universe_contains": "0.006 %",
    "sun_contains": "0.008 %",
    "oceans_contains": "2 &middot; 10<sup>-7</sup> %",
    "human_body_contains": "0.00001 %",
    "earth_crust_contains": "0.009 %",
    "meteorites_contains": "1.3 %",
    "start_isotope_number": 48,
    "stop_isotope_number": 57,
    "half_life_number": ["10 ms", "13 ms", "9.1 ms", "30 ms", "38 ms", "45 ms", "104 ms", "204.7 ms", "6.075 days", "35.60 hours"],
    "iso_weight": [48.01975, 49.00966, 49.99959, 50.98772, 51.97568, 52.96847, 53.95791, 54.95133, 55.94213, 56.93979]
}