var element_data = {
    "wiki": "https://en.wikipedia.org/wiki/Mercury",
    "video": "https://www.youtube.com/watch?v=oL0M_6bfzkU&list=PL7A1F4CF36C085DE1&index=80",
    "image": "Mercury/mercury.jpg",
    "species": "TRANSITION METALS",
    "symbol": "Hg",
    "latin_name": "Hydrargyrum",
    "english_name": "Mercury",
    "year_discovered": "<1500 BCE",
    "discovered_by": "----",
    "Electron_shell": [
        {
            "K": 2
        },
        {
            "L": 8
        },
        {
            "M": 18
        },
        {
            "N": 32
        },
        {
            "O": 18
        },
        {
            "P": 2
        },
        {
            "Q": 0
        },
        {
            "R": 0
        }
    ],
    "epn_no": [
        {
            "electrons": 80,
        },
        {
            "protons": 80,
        },
        {
            "neutrons": 120
        }
    ],
    "atomic_number": 80,
    "atomic_weight": "200.59 (g/mol)",
    "density": "13.55 (g/cm³)",
    "melting_point": "-38.89 °C = -38.00 °F = 234.26 K",
    "boiling_point": "356.7 °C = 674.06 °F = 629.85 K",
    "valence_electrons": 2,
    "period": 6,
    "group": "II A",
    "block": "d-block",
    "emission_spectrum": "Mercury/Hg.gif",
    "phase": "Liquid",
    "phase_icon": "----",
    "fusion_heat": "2.29 (kJ &middot K)",
    "specific_heat": "139.5 J/(kg &middot; K)",
    "thermal_expansion": "60.4 &middot; 10<sup>-6</sup>°C<sup>-1</sup>)",
    "vaporization_heat": "59.2 kJ &middot; mol",
    "electron_configuration": "[Xe] 6s<sup>2</sup> 4f<sup>14</sup> 5d<sup>10</sup>",
    "oxidation_state": "-2, +1, +2",
    "ion_charge": "Hg<sup>2+</sup>",
    "ionization_potential": "10.39 eV",
    "atomic_radius": "157 (pm)",
    "covalent_radius": "149 (pm)",
    "van_der_waals_radius": "155 (pm)",
    "electrical_conductivity": "1 &middot; 10<sup>6</sup>",
    "electrical_type": "Conductor", 
    "magnetic_type": "Diamagnetic",
    "volume_susceptibility": "-0.000284",
    "mass_susceptibility": "0.0000000021",
    "molar_susceptibility": "-4.21 &middot; 10<sup>-10</sup> m<sup>3</sup>/mol",
    "resistivity": "9.8 &middot; 10<sup>-7</sup> m\u03A9",
    "superconducting_point": "-269.00 °C = -452.19 °F = 4.154 K",
    "lattice_structure": "Mercury/Hexagonal_close_packed.svg.png",
    "crystal_structure": "Hexagonal",
    "grid": "a=3.464 \u212B; c=6.708 \u212B",
    "attitude": "1.94",
    "debye_temperature": "-173.15 °C = -279.67 °F = 100 K",
    "space_group_name": "R_3m",
    "space_group_number": "166",
    "CAS_number": "CAS7439-97-6",
    "CID_number": "CID23931",
    "RTEC_number": "RTECSOV4550000",
    "brinell_hardness": "---- MPa",
    "mohs_hardness": "----",
    "vickers_hardness": "----",
    "bulk_modulus": "---- GPa",
    "Young_modulus": "---- GPa",
    "liquid_density": "13.534 (g/cm<sup>3</sup>)",
    "molar_volume": "14.8 (cm<sup>3</sup>/mol)",
    "poisson_ratio": "----",
    "shear_modulus": "---- GPa",
    "sound_speed": "1407 m/s",
    "refractive_index": "----",
    "thermal_conductivity": "8.3 W/mK",
    "electronegative": "Pauling Scale 2",
    "electron_affinity": "0 KJ/mol",
    "radioactivity": "no",
    "half_life": "\u221E",
    "life_time": "\u221E",
    "barn": "374 b",
    "hazard_block": [
        {
            "red": "0"
        },
        {
            "yellow": "0"
        },
        {
            "blue": "3"
        },
        {
            "white": "-"
        }
    ],
    "fire_hazard": "Will not burn",
    "health_hazard":"Extreme danger",
    "reactivity": "Stable",
    "specific": "----",
    "universe_contains": "---- %",
    "sun_contains": "2 &middot; 10<sup>-6</sup> %",
    "oceans_contains": "5 &middot; 10<sup>-9</sup> %",
    "human_body_contains": "---- %",
    "earth_crust_contains": "6.7 &middot; 10<sup>-6</sup> %",
    "meteorites_contains": "0.000025 %",
    "start_isotope_number": 171,
    "stop_isotope_number": 181,
    "half_life_number": ["80 &micro;s", "420 &micro;s", "1.1 ms", "2.0 ms", "10.8 ms", "20.4 ms", "127.3 ms", "268 ms", "1.09 s", "2.58 s", "3.6 s"],
    "iso_weight": [171.99883, 172.99772, 173.99286, 173.99286, 174.99142, 175.98935, 176.98628, 177.98248, 178.98183, 179.97826, 180.97721]
}