{
    "mercury_Hg": {
        "allotropes": NaN,
        "alternative_name": NaN,
        "alternative_names": NaN,
        "appearance": "silvery",
        "at_t_(k)": 315.0,
        "atomic_number": 80,
        "atomic_radius": "empirical: 151 pm",
        "atomic_weight": "200.592(3)",
        "band_gap": NaN,
        "boiling_point": "629.88 K (356.73 \u00b0C, 674.11 \u00b0F)",
        "brinell_hardness": NaN,
        "bulk_modulus": NaN,
        "cas_number": "7439-97-6",
        "color": NaN,
        "covalent_radius": "132\u00b15 pm",
        "critical_point": "1750 K, 172.00 MPa",
        "crystal_structure": "rhombohedral",
        "curie_point": NaN,
        "density_at_stp": NaN,
        "density_near_rt": "13.534 g/cm3",
        "density_when_liquid_at_mp": NaN,
        "discovery": "Ancient Chinese and Indians (before 2000 BCE)",
        "discovery_and_first_isolation": NaN,
        "electrical_resistivity": "961 n?\u00b7m (at 25 \u00b0C)",
        "electron_configuration": "[Xe] 4f14 5d10 6s2",
        "electronegativity": "Pauling scale: 2.00",
        "element_category": "transition metal, alternatively considered a post-transition metal",
        "first_isolation": NaN,
        "group_block": "group 12, d-block",
        "heat_of_fusion": "2.29 kJ/mol",
        "heat_of_vaporisation": NaN,
        "heat_of_vaporization": "59.11 kJ/mol",
        "ionisation_energies": NaN,
        "ionization_energies": "1st: 1007.1 kJ/mol, 2nd: 1810 kJ/mol, 3rd: 3300 kJ/mol",
        "iso": "iso, NA, half-life, DM, DE (MeV), DP, 194Hg, syn, 444 y, ?, 0.040, 194Au, 195Hg, syn, 9.9 h, ?, 1.510, 195Au, 196Hg, 0.15%, 196Hg is stable with 116 neutrons, 197Hg, syn, 64.14 h, ?, 0.600, 197Au, 198Hg, 10.04%, 198Hg is stable with 118 neutrons, 199Hg, 16.94%, 199Hg is stable with 119 neutrons, 200Hg, 23.14%, 200Hg is stable with 120 neutrons, 201Hg, 13.17%, 201Hg is stable with 121 neutrons, 202Hg, 29.74%, 202Hg is stable with 122 neutrons, 203Hg, syn, 46.612 d, ??, 0.492, 203Tl, 204Hg, 6.82%, 204Hg is stable with 124 neutrons",
        "magnetic_ordering": "diamagnetic",
        "melting_point": "234.3210 K (?38.8290 \u00b0C, ?37.8922 \u00b0F)",
        "mohs_hardness": NaN,
        "molar_heat_capacity": "27.983 J/(mol\u00b7K)",
        "molar_volume": NaN,
        "name": "Mercury",
        "named_by": NaN,
        "naming": NaN,
        "oxidation_states": "2 (mercuric), 1 (mercurous), ?2 (a mildly basic oxide)",
        "p_(pa)": "vapor pressure, P (Pa), 1, 10, 100, 1 k, 10 k, 100 k, at T (K), 315, 350, 393, 449, 523, 629",
        "per_shell": "2, 8, 18, 32, 18, 2",
        "period": 6,
        "phase": "liquid",
        "poisson_ratio": NaN,
        "prediction": NaN,
        "pronunciation": "/?m??rkj?ri/, MER-ky?-ree",
        "proposed_formal_name": NaN,
        "recognised_as_an_element_by": NaN,
        "recognized_as_a_distinct_element_by": NaN,
        "recognized_as_a_unique_metal_by": NaN,
        "recognized_as_an_element_by": NaN,
        "shear_modulus": NaN,
        "speed_of_sound": "liquid: 1451.4 m/s (at 20 \u00b0C)",
        "speed_of_sound_thin_rod": NaN,
        "sublimation_point": NaN,
        "symbol": "Hg",
        "tensile_strength": NaN,
        "thermal_conductivity": "8.30 W/(m\u00b7K)",
        "thermal_diffusivity": NaN,
        "thermal_expansion": "60.4 \u00b5m/(m\u00b7K) (at 25 \u00b0C)",
        "triple_point": "234.3156 K, 1.65\u00d710?7 kPa",
        "van_der_waals_radius": "155 pm",
        "vickers_hardness": NaN,
        "when_liquid_at_bp": NaN,
        "when_liquid_at_mp": NaN,
        "youngs_modulus": NaN
    }
}