{
    "francium_Fr": {
        "allotropes": NaN,
        "alternative_name": NaN,
        "alternative_names": NaN,
        "appearance": NaN,
        "at_t_(k)": 404.0,
        "atomic_number": 87,
        "atomic_radius": NaN,
        "atomic_weight": "(223)",
        "band_gap": NaN,
        "boiling_point": "? 950 K (680 \u00b0C, 1300 \u00b0F)",
        "brinell_hardness": NaN,
        "bulk_modulus": NaN,
        "cas_number": "7440-73-5",
        "color": NaN,
        "covalent_radius": "260 pm (extrapolated)",
        "critical_point": NaN,
        "crystal_structure": "body-centered cubic (bcc), (extrapolated)",
        "curie_point": NaN,
        "density_at_stp": NaN,
        "density_near_rt": "2.8\u20133.0 g/cm3 (extrapolated)",
        "density_when_liquid_at_mp": NaN,
        "discovery": NaN,
        "discovery_and_first_isolation": "Marguerite Perey (1939)",
        "electrical_resistivity": "3 \u00b5?\u00b7m (calculated)",
        "electron_configuration": "[Rn] 7s1",
        "electronegativity": "Pauling scale: >0.79",
        "element_category": "alkali metal",
        "first_isolation": NaN,
        "group_block": "group 1 (alkali metals), s-block",
        "heat_of_fusion": NaN,
        "heat_of_vaporisation": NaN,
        "heat_of_vaporization": NaN,
        "ionisation_energies": NaN,
        "ionization_energies": "1st: 393 kJ/mol",
        "iso": "iso, NA, half-life, DM, DE (MeV), DP, 221Fr, trace, 4.8 min, ?, 6.457, 217At, 222Fr, syn, 14.2 min, ??, 2.033, 222Ra, 223Fr, trace, 22.00 min, ??, 1.149, 223Ra, ?, 5.430, 219At",
        "magnetic_ordering": "Paramagnetic",
        "melting_point": "? 300 K (30 \u00b0C, 80 \u00b0F)",
        "mohs_hardness": NaN,
        "molar_heat_capacity": NaN,
        "molar_volume": NaN,
        "name": "Francium",
        "named_by": NaN,
        "naming": "after France, homeland of the discoverer",
        "oxidation_states": "+1 (a strongly basic oxide)",
        "p_(pa)": "vapor pressure (extrapolated), P (Pa), 1, 10, 100, 1 k, 10 k, 100 k, at T (K), 404, 454, 519, 608, 738, 946",
        "per_shell": "2, 8, 18, 32, 18, 8, 1",
        "period": 7,
        "phase": "solid presumably",
        "poisson_ratio": NaN,
        "prediction": NaN,
        "pronunciation": "/?fr\u00e6nsi?m/, FRAN-see-?m",
        "proposed_formal_name": NaN,
        "recognised_as_an_element_by": NaN,
        "recognized_as_a_distinct_element_by": NaN,
        "recognized_as_a_unique_metal_by": NaN,
        "recognized_as_an_element_by": NaN,
        "shear_modulus": NaN,
        "speed_of_sound": NaN,
        "speed_of_sound_thin_rod": NaN,
        "sublimation_point": NaN,
        "symbol": "Fr",
        "tensile_strength": NaN,
        "thermal_conductivity": "15 W/(m\u00b7K) (extrapolated)",
        "thermal_diffusivity": NaN,
        "thermal_expansion": NaN,
        "triple_point": NaN,
        "van_der_waals_radius": "348 pm (extrapolated)",
        "vickers_hardness": NaN,
        "when_liquid_at_bp": NaN,
        "when_liquid_at_mp": NaN,
        "youngs_modulus": NaN
    }
}