var element_data = {
    "wiki": "https://en.wikipedia.org/wiki/Molybdenum",
    "video": "https://www.youtube.com/watch?v=ZRQ3vBGskds&list=PL7A1F4CF36C085DE1&index=42",
    "image": "Molybdenum/molybdenum.jpg",
    "species": "TRANSITION METALS",
    "symbol": "Mo",
    "latin_name": "Molybdaenum",
    "english_name": "Molybdenum",
    "year_discovered": "1778",
    "discovered_by": "Carl Wilhelm Scheele",
    "Electron_shell": [
        {
            "K": 2
        },
        {
            "L": 8
        },
        {
            "M": 18
        },
        {
            "N": 13
        },
        {
            "O": 1
        },
        {
            "P": 0
        },
        {
            "Q": 0
        },
        {
            "R": 0
        }
    ],
    "epn_no": [
        {
            "electrons": 42,
        },
        {
            "protons": 42,
        },
        {
            "neutrons": 54
        }
    ],
    "atomic_number": 42,
    "atomic_weight": "95.94 (g/mol)",
    "density": "10.22 (g/cm³)",
    "melting_point": "2623 °C = 4753.40 °F = 2896.15 K",
    "boiling_point": "4639 °C = 8382.20 °F = 4912.15 K",
    "valence_electrons": 6,
    "period": 5,
    "group": "VI B",
    "block": "d-block",
    "emission_spectrum": "Molybdenum/Mo.gif",
    "phase": "Solid",
    "phase_icon": "----",
    "fusion_heat": "36 (kJ &middot K)",
    "specific_heat": "251 J/(kg &middot; K)",
    "thermal_expansion": "4.8 &middot; 10<sup>-6</sup>°C<sup>-1</sup>)",
    "vaporization_heat": "600 kJ &middot; mol",
    "electron_configuration": "[Kr] 5s<sup>1</sup> 4d<sup>5</sup>",
    "oxidation_state": "-4, -2, -1, +1, +2, +3, +4, +5, +6",
    "ion_charge": "Mo<sup>6+</sup>",
    "ionization_potential": "7.35 eV",
    "atomic_radius": "139 (pm)",
    "covalent_radius": "145 (pm)",
    "van_der_waals_radius": "---- (pm)",
    "electrical_conductivity": "2 &middot; 10<sup>7</sup>",
    "electrical_type": "Conductor", 
    "magnetic_type": "Paramagnetic",
    "volume_susceptibility": "0.0001203",
    "mass_susceptibility": "0.0000000117",
    "molar_susceptibility": "1.122 &middot; 10<sup>-9</sup> m<sup>3</sup>/mol",
    "resistivity": "5 &middot; 10<sup>-8</sup> m\u03A9",
    "superconducting_point": "-272.23 °C = -458.02 °F = 0.915 K",
    "lattice_structure": "Molybdenum/Lattice_body_centered_cubic.svg.png",
    "crystal_structure": "Body-centered cubic",
    "grid": "a=3.147 \u212B;",
    "attitude": "----",
    "debye_temperature": "176.85 °C = 350.33 °F = 450 K",
    "space_group_name": "Im_3m",
    "space_group_number": "229",
    "CAS_number": "CAS7439-98-7",
    "CID_number": "CID23932",
    "RTEC_number": "RTECSQA4680000",
    "brinell_hardness": "1370-2500 MPa",
    "mohs_hardness": "5.5",
    "vickers_hardness": "820-1800 MPa",
    "bulk_modulus": "230 GPa",
    "Young_modulus": "329 GPa",
    "liquid_density": "9.33 (g/cm<sup>3</sup>)",
    "molar_volume": "9.4 (cm<sup>3</sup>/mol)",
    "poisson_ratio": "0.31 &micro;",
    "shear_modulus": "20 GPa",
    "sound_speed": "6190 m/s",
    "refractive_index": "----",
    "thermal_conductivity": "139 W/mK",
    "electronegative": "Pauling Scale 2.16",
    "electron_affinity": "71.9 KJ/mol",
    "radioactivity": "no",
    "half_life": "\u221E",
    "life_time": "\u221E",
    "barn": "2.6 b",
    "hazard_block": [
        {
            "red": "2"
        },
        {
            "yellow": "-"
        },
        {
            "blue": "3"
        },
        {
            "white": "-"
        }
    ],
    "fire_hazard": "Below 37.7 °C",
    "health_hazard":"Slightly Hazardous",
    "reactivity": "Stable",
    "specific": "----",
    "universe_contains": "5 &middot; 10<sup>-7</sup> %",
    "sun_contains": "9 &middot; 10<sup>-7</sup> %",
    "oceans_contains": "9.9 &middot; 10<sup>-6</sup> %",
    "human_body_contains": "0.00001 %",
    "earth_crust_contains": "0.00011 %",
    "meteorites_contains": "0.00012 %",
    "start_isotope_number": 83,
    "stop_isotope_number": 89,
    "half_life_number": ["23 ns", "3.8 ns", "3.2 s", "19.6 s", "14.05 s", "8.0 m", "2.11 m"],
    "iso_weight": [82.94874, 83.94009, 84.93655, 85.93070, 86.92733, 87.92195, 88.91948]
}