{
    "molybdenum_Mo": {
        "allotropes": NaN,
        "alternative_name": NaN,
        "alternative_names": NaN,
        "appearance": "gray metallic",
        "at_t_(k)": 2742.0,
        "atomic_number": 42,
        "atomic_radius": "empirical: 139 pm",
        "atomic_weight": "95.95(1)",
        "band_gap": NaN,
        "boiling_point": "4912 K (4639 \u00b0C, 8382 \u00b0F)",
        "brinell_hardness": "1370\u20132500 MPa",
        "bulk_modulus": "230 GPa",
        "cas_number": "7439-98-7",
        "color": NaN,
        "covalent_radius": "154\u00b15 pm",
        "critical_point": NaN,
        "crystal_structure": "body-centered cubic (bcc)",
        "curie_point": NaN,
        "density_at_stp": NaN,
        "density_near_rt": "10.28 g/cm3",
        "density_when_liquid_at_mp": NaN,
        "discovery": "Carl Wilhelm Scheele (1778)",
        "discovery_and_first_isolation": NaN,
        "electrical_resistivity": "53.4 n?\u00b7m (at 20 \u00b0C)",
        "electron_configuration": "[Kr] 4d5 5s1",
        "electronegativity": "Pauling scale: 2.16",
        "element_category": "transition metal",
        "first_isolation": "Peter Jacob Hjelm (1781)",
        "group_block": "group 6, d-block",
        "heat_of_fusion": "37.48 kJ/mol",
        "heat_of_vaporisation": NaN,
        "heat_of_vaporization": "598 kJ/mol",
        "ionisation_energies": NaN,
        "ionization_energies": "1st: 684.3 kJ/mol, 2nd: 1560 kJ/mol, 3rd: 2618 kJ/mol",
        "iso": "iso\nNA\nhalf-life\nDM\nDE (MeV)\nDP\n\n\n92Mo\n14.65%\n92Mo is stable with 50 neutrons\n\n\n93Mo\nsyn\n4\u00d7103 y\n?\n\u2013\n93Nb\n\n\n94Mo\n9.19%\n94Mo is stable with 52 neutrons\n\n\n95Mo\n15.87%\n95Mo is stable with 53 neutrons\n\n\n96Mo\n16.67%\n96Mo is stable with 54 neutrons\n\n\n97Mo\n9.58%\n97Mo is stable with 55 neutrons\n\n\n98Mo\n24.29%\n98Mo is stable with 56 neutrons\n\n\n99Mo\nsyn\n65.94 h\n??\n0.436, 1.214\n99mTc\n\n\n?\n0.74, 0.36,\n0.14\n\u2013\n\n\n100Mo\n9.74%\n7.8\u00d71018 y\n????\n3.04\n100Ru",
        "magnetic_ordering": "paramagnetic",
        "melting_point": "2896 K (2623 \u00b0C, 4753 \u00b0F)",
        "mohs_hardness": "5.5",
        "molar_heat_capacity": "24.06 J/(mol\u00b7K)",
        "molar_volume": NaN,
        "name": "Molybdenum",
        "named_by": NaN,
        "naming": NaN,
        "oxidation_states": "6, 5, 4, 3, 2, 1, ?1, ?2, ?4 (a strongly acidic oxide)",
        "p_(pa)": "vapor pressure, P (Pa), 1, 10, 100, 1 k, 10 k, 100 k, at T (K), 2742, 2994, 3312, 3707, 4212, 4879",
        "per_shell": "2, 8, 18, 13, 1",
        "period": 5,
        "phase": "solid",
        "poisson_ratio": "0.31",
        "prediction": NaN,
        "pronunciation": "/?m?l?b?di?n?m/ or /m??l?bd?n?m/, MOL-ib-DEE-n?m or m?-LIB-di-n?m",
        "proposed_formal_name": NaN,
        "recognised_as_an_element_by": NaN,
        "recognized_as_a_distinct_element_by": NaN,
        "recognized_as_a_unique_metal_by": NaN,
        "recognized_as_an_element_by": NaN,
        "shear_modulus": "126 GPa",
        "speed_of_sound": NaN,
        "speed_of_sound_thin_rod": "5400 m/s (at r.t.)",
        "sublimation_point": NaN,
        "symbol": "Mo",
        "tensile_strength": NaN,
        "thermal_conductivity": "138 W/(m\u00b7K)",
        "thermal_diffusivity": "54.3 mm2/s (at 300 K)",
        "thermal_expansion": "4.8 \u00b5m/(m\u00b7K) (at 25 \u00b0C)",
        "triple_point": NaN,
        "van_der_waals_radius": NaN,
        "vickers_hardness": "1400\u20132740 MPa",
        "when_liquid_at_bp": NaN,
        "when_liquid_at_mp": "9.33 g/cm3",
        "youngs_modulus": "329 GPa"
    }
}