{
    "osmium_Os": {
        "allotropes": NaN,
        "alternative_name": NaN,
        "alternative_names": NaN,
        "appearance": "silvery, blue cast",
        "at_t_(k)": 3160.0,
        "atomic_number": 76,
        "atomic_radius": "empirical: 135 pm",
        "atomic_weight": "190.23(3)",
        "band_gap": NaN,
        "boiling_point": "5285 K (5012 \u00b0C, 9054 \u00b0F)",
        "brinell_hardness": "3490\u20134000 MPa",
        "bulk_modulus": "462 GPa",
        "cas_number": "7440-04-2",
        "color": NaN,
        "covalent_radius": "144\u00b14 pm",
        "critical_point": NaN,
        "crystal_structure": "hexagonal close-packed (hcp)",
        "curie_point": NaN,
        "density_at_stp": NaN,
        "density_near_rt": "22.59 g/cm3",
        "density_when_liquid_at_mp": NaN,
        "discovery": NaN,
        "discovery_and_first_isolation": "Smithson Tennant (1803)",
        "electrical_resistivity": "81.2 n?\u00b7m (at 0 \u00b0C)",
        "electron_configuration": "[Xe] 4f14 5d6 6s2",
        "electronegativity": "Pauling scale: 2.2",
        "element_category": "transition metal",
        "first_isolation": NaN,
        "group_block": "group 8, d-block",
        "heat_of_fusion": "31 kJ/mol",
        "heat_of_vaporisation": NaN,
        "heat_of_vaporization": "378 kJ/mol",
        "ionisation_energies": NaN,
        "ionization_energies": "1st: 840 kJ/mol, 2nd: 1600 kJ/mol",
        "iso": "iso, NA, half-life, DM, DE (MeV), DP, 184Os, 0.02%, 184Os is stable with 108 neutrons, 185Os, syn, 93.6 d, ?, 1.013, 185Re, 186Os, 1.59%, 2.0\u00d71015 y, ?, 2.822, 182W, 187Os, 1.96%, 187Os is stable with 111 neutrons, 188Os, 13.24%, 188Os is stable with 112 neutrons, 189Os, 16.15%, 189Os is stable with 113 neutrons, 190Os, 26.26%, 190Os is stable with 114 neutrons, 191Os, syn, 15.4 d, ??, 0.314, 191Ir, 192Os, 40.78%, 192Os is stable with 116 neutrons, 193Os, syn, 30.11 d, ??, 1.141, 193Ir, 194Os, syn, 6 y, ??, 0.097, 194Ir",
        "magnetic_ordering": "paramagnetic",
        "melting_point": "3306 K (3033 \u00b0C, 5491 \u00b0F)",
        "mohs_hardness": "7",
        "molar_heat_capacity": "24.7 J/(mol\u00b7K)",
        "molar_volume": NaN,
        "name": "Osmium",
        "named_by": NaN,
        "naming": NaN,
        "oxidation_states": "8, 7, 6, 5, 4, 3, 2, 1, 0, ?1, ?2, ?4 (a mildly acidic oxide)",
        "p_(pa)": "vapor pressure, P (Pa), 1, 10, 100, 1 k, 10 k, 100 k, at T (K), 3160, 3423, 3751, 4148, 4638, 5256",
        "per_shell": "2, 8, 18, 32, 14, 2",
        "period": 6,
        "phase": "solid",
        "poisson_ratio": "0.25",
        "prediction": NaN,
        "pronunciation": "/??zmi?m/, OZ-mee-?m",
        "proposed_formal_name": NaN,
        "recognised_as_an_element_by": NaN,
        "recognized_as_a_distinct_element_by": NaN,
        "recognized_as_a_unique_metal_by": NaN,
        "recognized_as_an_element_by": NaN,
        "shear_modulus": "222 GPa",
        "speed_of_sound": NaN,
        "speed_of_sound_thin_rod": "4940 m/s (at 20 \u00b0C)",
        "sublimation_point": NaN,
        "symbol": "Os",
        "tensile_strength": NaN,
        "thermal_conductivity": "87.6 W/(m\u00b7K)",
        "thermal_diffusivity": NaN,
        "thermal_expansion": "5.1 \u00b5m/(m\u00b7K) (at 25 \u00b0C)",
        "triple_point": NaN,
        "van_der_waals_radius": NaN,
        "vickers_hardness": NaN,
        "when_liquid_at_bp": NaN,
        "when_liquid_at_mp": "20 g/cm3",
        "youngs_modulus": NaN
    }
}