var element_data = {
    "wiki": "https://en.wikipedia.org/wiki/Osmium",
    "video": "https://www.youtube.com/watch?v=AdX-T2Vv68Y&list=PL7A1F4CF36C085DE1&index=76",
    "image": "Osmium/osmium.jpg",
    "species": "TRANSITION METALS",
    "symbol": "Os",
    "latin_name": "Osmium",
    "english_name": "Osmium",
    "year_discovered": "1804",
    "discovered_by": "Smithson Tennant",
    "Electron_shell": [
        {
            "K": 2
        },
        {
            "L": 8
        },
        {
            "M": 18
        },
        {
            "N": 32
        },
        {
            "O": 14
        },
        {
            "P": 2
        },
        {
            "Q": 0
        },
        {
            "R": 0
        }
    ],
    "epn_no": [
        {
            "electrons": 76,
        },
        {
            "protons": 76,
        },
        {
            "neutrons": 114
        }
    ],
    "atomic_number": 76,
    "atomic_weight": "190.23 (g/mol)",
    "density": "22.587 (g/cm³)",
    "melting_point": "3033 °C = 5491.40 °F = 3306.15 K",
    "boiling_point": "5597 °C = 10106.60 °F = 5870.15 K",
    "valence_electrons": 6,
    "period": 6,
    "group": "VIII A",
    "block": "d-block",
    "emission_spectrum": "Osmium/Os.gif",
    "phase": "Solid",
    "phase_icon": "----",
    "fusion_heat": "31 (kJ &middot K)",
    "specific_heat": "130 J/(kg &middot; K)",
    "thermal_expansion": "5.1 &middot; 10<sup>-6</sup>°C<sup>-1</sup>)",
    "vaporization_heat": "630 kJ &middot; mol",
    "electron_configuration": "[Xe] 6s<sup>2</sup> 4f<sup>14</sup> 5d<sup>6</sup>",
    "oxidation_state": "-4, -2, -1, +1, +2, +3, +4, +5, +6, +7, +8",
    "ion_charge": "Os<sup>4+</sup>",
    "ionization_potential": "---- eV",
    "atomic_radius": "135 (pm)",
    "covalent_radius": "128 (pm)",
    "van_der_waals_radius": "---- (pm)",
    "electrical_conductivity": "1.2 &middot; 10<sup>7</sup>",
    "electrical_type": "Conductor", 
    "magnetic_type": "Paramagnetic",
    "volume_susceptibility": "0.000014",
    "mass_susceptibility": "0.0000000006",
    "molar_susceptibility": "1.1 &middot; 10<sup>-10</sup> m<sup>3</sup>/mol",
    "resistivity": "8.1 &middot; 10<sup>-8</sup> m\u03A9",
    "superconducting_point": "----",
    "lattice_structure": "Osmium/Hexagonal_close_packed.svg.png",
    "crystal_structure": "Hexagonal close-packed",
    "grid": "a=2.734 \u212B; c=4.317 \u212B",
    "attitude": "1.579",
    "debye_temperature": "----",
    "space_group_name": "----",
    "space_group_number": "----",
    "CAS_number": "CAS7440-04-2",
    "CID_number": "CID23937",
    "RTEC_number": "RTECSRN1100000",
    "brinell_hardness": "293 MPa",
    "mohs_hardness": "7",
    "vickers_hardness": "300 MPa",
    "bulk_modulus": "462 GPa",
    "Young_modulus": "---- GPa",
    "liquid_density": "20 (g/cm<sup>3</sup>)",
    "molar_volume": "8.43 (cm<sup>3</sup>/mol)",
    "poisson_ratio": "0.25 &micro;",
    "shear_modulus": "222 GPa",
    "sound_speed": "4940 m/s",
    "refractive_index": "----",
    "thermal_conductivity": "88 W/mK",
    "electronegative": "Pauling Scale 2.2",
    "electron_affinity": "106.1 KJ/mol",
    "radioactivity": "no",
    "half_life": "\u221E",
    "life_time": "\u221E",
    "barn": "15 b",
    "hazard_block": [
        {
            "red": "4"
        },
        {
            "yellow": "1"
        },
        {
            "blue": "-"
        },
        {
            "white": "-"
        }
    ],
    "fire_hazard": "Below 22.7 °C",
    "health_hazard":"----",
    "reactivity": "Unstable if heated",
    "specific": "----",
    "universe_contains": "---- %",
    "sun_contains": "2 &middot; 10<sup>-7</sup> %",
    "oceans_contains": "---- %",
    "human_body_contains": "---- %",
    "earth_crust_contains": "1.8 &middot; 10<sup>-7</sup> %",
    "meteorites_contains": "0.000065 %",
    "start_isotope_number": 162,
    "stop_isotope_number": 166,
    "half_life_number": ["1.87 ms", "5.5 ms", "21 ms", "71 ms", "216 ms"],
    "iso_weight": [161.98443, 162.98269, 163.97804, 164.97676, 165.97269]
}