{
    "sulfur_S": {
        "allotropes": NaN,
        "alternative_name": "sulphur",
        "alternative_names": NaN,
        "appearance": "lemon yellow sintered microcrystals",
        "at_t_(k)": 375.0,
        "atomic_number": 16,
        "atomic_radius": NaN,
        "atomic_weight": "32.06 (32.059\u201332.076)",
        "band_gap": NaN,
        "boiling_point": "717.8 K (444.6 \u00b0C, 832.3 \u00b0F)",
        "brinell_hardness": NaN,
        "bulk_modulus": "7.7 GPa",
        "cas_number": "7704-34-9",
        "color": NaN,
        "covalent_radius": "105\u00b13 pm",
        "critical_point": "1314 K, 20.7 MPa",
        "crystal_structure": "orthorhombic",
        "curie_point": NaN,
        "density_at_stp": NaN,
        "density_near_rt": "alpha: 2.07 g/cm3, beta: 1.96 g/cm3, gamma: 1.92 g/cm3",
        "density_when_liquid_at_mp": NaN,
        "discovery": "Chinese (before 2000 BCE)",
        "discovery_and_first_isolation": NaN,
        "electrical_resistivity": "2\u00d71015  ?\u00b7m (at 20 \u00b0C) (amorphous)",
        "electron_configuration": "[Ne] 3s2 3p4",
        "electronegativity": "Pauling scale: 2.58",
        "element_category": "polyatomic nonmetal",
        "first_isolation": NaN,
        "group_block": "group 16 (chalcogens), p-block",
        "heat_of_fusion": "mono: 1.727 kJ/mol",
        "heat_of_vaporisation": NaN,
        "heat_of_vaporization": "mono: 45 kJ/mol",
        "ionisation_energies": NaN,
        "ionization_energies": "1st: 999.6 kJ/mol, 2nd: 2252 kJ/mol, 3rd: 3357 kJ/mol, (more)",
        "iso": "iso, NA, half-life, DM, DE (MeV), DP, 32S, 94.99%, 32S is stable with 16 neutrons, 33S, 0.75%, 33S is stable with 17 neutrons, 34S, 4.25%, 34S is stable with 18 neutrons, 35S, trace, 87.32 d, ??, 0.167, 35Cl, 36S, 0.01%, 36S is stable with 20 neutrons",
        "magnetic_ordering": "diamagnetic",
        "melting_point": "388.36 K (115.21 \u00b0C, 239.38 \u00b0F)",
        "mohs_hardness": "2",
        "molar_heat_capacity": "22.75 J/(mol\u00b7K)",
        "molar_volume": NaN,
        "name": "Sulfur",
        "named_by": NaN,
        "naming": NaN,
        "oxidation_states": "6, 5, 4, 3, 2, 1, ?1, ?2 (a strongly acidic oxide)",
        "p_(pa)": "vapor pressure, P (Pa), 1, 10, 100, 1 k, 10 k, 100 k, at T (K), 375, 408, 449, 508, 591, 717",
        "per_shell": "2, 8, 6",
        "period": 3,
        "phase": "solid",
        "poisson_ratio": NaN,
        "prediction": NaN,
        "pronunciation": "/?s?lf?r/, SUL-f?r",
        "proposed_formal_name": NaN,
        "recognised_as_an_element_by": NaN,
        "recognized_as_a_distinct_element_by": NaN,
        "recognized_as_a_unique_metal_by": NaN,
        "recognized_as_an_element_by": "Antoine Lavoisier (1777)",
        "shear_modulus": NaN,
        "speed_of_sound": NaN,
        "speed_of_sound_thin_rod": NaN,
        "sublimation_point": NaN,
        "symbol": "S",
        "tensile_strength": NaN,
        "thermal_conductivity": "0.205 W/(m\u00b7K) (amorphous)",
        "thermal_diffusivity": NaN,
        "thermal_expansion": NaN,
        "triple_point": NaN,
        "van_der_waals_radius": "180 pm",
        "vickers_hardness": NaN,
        "when_liquid_at_bp": NaN,
        "when_liquid_at_mp": "1.819 g/cm3",
        "youngs_modulus": NaN
    }
}