var element_data = {
    "wiki": "https://en.wikipedia.org/wiki/Sulfur",
    "video": "https://www.youtube.com/watch?v=mGMR72X8V-U&list=PL7A1F4CF36C085DE1&index=16",
    "image": "Sulfur/sulfur.jpg",
    "species": "OTHER NONMETALS",
    "symbol": "S",
    "latin_name": "Sulfur",
    "english_name": "Sulfur",
    "year_discovered": "<600 BCE",
    "discovered_by": "----",
    "Electron_shell": [
        {
            "K": 2
        },
        {
            "L": 8
        },
        {
            "M": 6
        },
        {
            "N": 0
        },
        {
            "O": 0
        },
        {
            "P": 0
        },
        {
            "Q": 0
        },
        {
            "R": 0
        }
    ],
    "epn_no": [
        {
            "electrons": 16,
        },
        {
            "protons": 16,
        },
        {
            "neutrons": 16
        }
    ],
    "atomic_number": 16,
    "atomic_weight": "32.065 (g/mol)",
    "density": "2.070 (g/cm³)",
    "melting_point": "112.8 °C = 235.04 °F = 385.95 K",
    "boiling_point": "444.67 °C = 832.41 °F = 717.82 K",
    "valence_electrons": 6,
    "period": 3,
    "group": "VI A",
    "block": "p-block",
    "emission_spectrum": "Sulfur/S.gif",
    "phase": "Solid",
    "phase_icon": "----",
    "fusion_heat": "1.73 (kJ &middot K)",
    "specific_heat": "705 J/(kg &middot; K)",
    "thermal_expansion": "---- °C<sup>-1</sup>)",
    "vaporization_heat": "9.8 kJ &middot; mol",
    "electron_configuration": "[Ne] 3s<sup>2</sup> 3p<sup>4</sup>",
    "oxidation_state": "-2, -1, +1, +2, +3, +4, +5, +6",
    "ion_charge": "S<sup>2-</sup>",
    "ionization_potential": "10.31 eV",
    "atomic_radius": "100 (pm)",
    "covalent_radius": "102 (pm)",
    "van_der_waals_radius": "180 (pm)",
    "electrical_conductivity": "1 &middot; 10<sup>-15</sup>",
    "electrical_type": "Dielectric", 
    "magnetic_type": "Diamagnetic",
    "volume_susceptibility": "-0.000122",
    "mass_susceptibility": "-0.0000000062",
    "molar_susceptibility": "-1.99 &middot; 10<sup>-9</sup> m<sup>3</sup>/mol",
    "resistivity": "10<sup>15</sup> m\u03A9",
    "superconducting_point": "----",
    "lattice_structure": "Sulfur/Orthorhombic.svg.png",
    "crystal_structure": "Orthorhombic",
    "grid": "a=10.437 \u212B; b=12.845 \u212B; c=24.369 \u212B",
    "attitude": "----",
    "debye_temperature": "----",
    "space_group_name": "Fddd",
    "space_group_number": "70",
    "CAS_number": "CAS7704-34-9",
    "CID_number": "CID5362487",
    "RTEC_number": "RTECSWS4250000",
    "brinell_hardness": "---- MPa",
    "mohs_hardness": "2",
    "vickers_hardness": "----",
    "bulk_modulus": "7.7 GPa",
    "Young_modulus": "---- GPa",
    "liquid_density": "1.89 (g/cm<sup>3</sup>)",
    "molar_volume": "15.5 (cm<sup>3</sup>/mol)",
    "poisson_ratio": "----",
    "shear_modulus": "---- GPa",
    "sound_speed": "---- m/s",
    "refractive_index": "----",
    "thermal_conductivity": "0.205 W/mK",
    "electronegative": "Pauling Scale 2.58",
    "electron_affinity": "200 KJ/mol",
    "radioactivity": "no",
    "half_life": "\u221E",
    "life_time": "\u221E",
    "barn": "0.52 b",
    "hazard_block": [
        {
            "red": "-"
        },
        {
            "yellow": "-"
        },
        {
            "blue": "-"
        },
        {
            "white": "-"
        }
    ],
    "fire_hazard": "----",
    "health_hazard":"----",
    "reactivity": "----",
    "specific": "----",
    "universe_contains": "0.05 %",
    "sun_contains": "0.04 %",
    "oceans_contains": "0.093 %",
    "human_body_contains": "0.2 %",
    "earth_crust_contains": "0.042 %",
    "meteorites_contains": "4 %",
    "start_isotope_number": 26,
    "stop_isotope_number": 35,
    "half_life_number": ["10 ms", "15 ms", "125 ms", "187 ms", "1.178 s", "2.572 s", "-", "-", "-", "87.51 days"],
    "iso_weight": [26.027, 27.01883, 28.0437, 28.99661, 29.98490, 30.97955, 31.97207, 32.97145, 33.96786, 34.96903]
}