{
    "thorium_Th": {
        "allotropes": NaN,
        "alternative_name": NaN,
        "alternative_names": NaN,
        "appearance": "silvery, often with black tarnish",
        "at_t_(k)": 2633.0,
        "atomic_number": 90,
        "atomic_radius": "empirical: 179.8 pm",
        "atomic_weight": "232.0377(4)",
        "band_gap": NaN,
        "boiling_point": "5061 K (4788 \u00b0C, 8650 \u00b0F)",
        "brinell_hardness": "390\u20131500 MPa",
        "bulk_modulus": "54 GPa",
        "cas_number": "7440-29-1",
        "color": NaN,
        "covalent_radius": "206\u00b16 pm",
        "critical_point": NaN,
        "crystal_structure": "face-centred cubic (fcc)",
        "curie_point": NaN,
        "density_at_stp": NaN,
        "density_near_rt": "11.7 g/cm3",
        "density_when_liquid_at_mp": NaN,
        "discovery": "J\u00f6ns Jakob Berzelius (1829)",
        "discovery_and_first_isolation": NaN,
        "electrical_resistivity": "157 n?\u00b7m (at 0 \u00b0C)",
        "electron_configuration": "[Rn] 6d2 7s2",
        "electronegativity": "Pauling scale: 1.3",
        "element_category": "actinide",
        "first_isolation": NaN,
        "group_block": "group n/a, f-block",
        "heat_of_fusion": "13.81 kJ/mol",
        "heat_of_vaporisation": "514 kJ/mol",
        "heat_of_vaporization": NaN,
        "ionisation_energies": "1st: 587 kJ/mol, 2nd: 1110 kJ/mol, 3rd: 1930 kJ/mol",
        "ionization_energies": NaN,
        "iso": "iso, NA, half-life, DM, DE (MeV), DP, 227Th, trace, 18.68 d, ?, 6.038, 5.978, 223Ra, 228Th, trace, 1.9116 y, ?, 5.520, 224Ra, 229Th, trace, 7917 y, ?, 5.168, 225Ra, 230Th, 0.02%, 75400 y, ?, 4.770, 226Ra, 231Th, trace, 25.5 h, ??, 0.39, 231Pa, 232Th, 99.98%, 1.405\u00d71010 y, ?, 4.083, 228Ra, 234Th, trace, 24.1 d, ??, 0.27, 234Pa",
        "magnetic_ordering": "paramagnetic",
        "melting_point": "2023 K (1750 \u00b0C, 3182 \u00b0F)",
        "mohs_hardness": "3",
        "molar_heat_capacity": "26.230 J/(mol\u00b7K)",
        "molar_volume": NaN,
        "name": "Thorium",
        "named_by": NaN,
        "naming": "after Thor, the Norse god of thunder",
        "oxidation_states": "4, 3, 2, 1",
        "p_(pa)": "vapour pressure, P (Pa), 1, 10, 100, 1 k, 10 k, 100 k, at T (K), 2633, 2907, 3248, 3683, 4259, 5055",
        "per_shell": "2, 8, 18, 32, 18, 10, 2",
        "period": 7,
        "phase": "solid",
        "poisson_ratio": "0.27",
        "prediction": NaN,
        "pronunciation": "/????ri?m/, THAWR-ee-?m",
        "proposed_formal_name": NaN,
        "recognised_as_an_element_by": NaN,
        "recognized_as_a_distinct_element_by": NaN,
        "recognized_as_a_unique_metal_by": NaN,
        "recognized_as_an_element_by": NaN,
        "shear_modulus": "31 GPa",
        "speed_of_sound": NaN,
        "speed_of_sound_thin_rod": "2490 m/s (at 20 \u00b0C)",
        "sublimation_point": NaN,
        "symbol": "Th",
        "tensile_strength": NaN,
        "thermal_conductivity": "54.0 W/(m\u00b7K)",
        "thermal_diffusivity": NaN,
        "thermal_expansion": "11.0 \u00b5m/(m\u00b7K) (at 25 \u00b0C)",
        "triple_point": NaN,
        "van_der_waals_radius": NaN,
        "vickers_hardness": "295\u2013685 MPa",
        "when_liquid_at_bp": NaN,
        "when_liquid_at_mp": NaN,
        "youngs_modulus": "79 GPa"
    }
}