var element_data = {
    "wiki": "https://en.wikipedia.org/wiki/Thorium",
    "video": "https://www.youtube.com/watch?v=2yZGcr0mpw0&list=PL7A1F4CF36C085DE1&index=90",
    "image": "Thorium/thorium.jpg",
    "species": "ACTINOIDS",
    "symbol": "Th",
    "latin_name": "Thorium",
    "english_name": "Thorium",
    "year_discovered": "1828",
    "discovered_by": "Jöns Jakob Berzelius",
    "Electron_shell": [
        {
            "K": 2
        },
        {
            "L": 8
        },
        {
            "M": 18
        },
        {
            "N": 32
        },
        {
            "O": 18
        },
        {
            "P": 10
        },
        {
            "Q": 2
        },
        {
            "R": 0
        }
    ],
    "epn_no": [
        {
            "electrons": 90,
        },
        {
            "protons": 90,
        },
        {
            "neutrons": 142
        }
    ],
    "atomic_number": 90,
    "atomic_weight": "232.0380 (g/mol)",
    "density": "11.72 (g/cm³)",
    "melting_point": "1750 °C = 3182.00 °F = 2023.15 K",
    "boiling_point": "4787 °C = 8648.60 °F = 5060.15 K",
    "valence_electrons": 4,
    "period": 7,
    "group": "----",
    "block": "f-block",
    "emission_spectrum": "Thorium/Th.gif",
    "phase": "Solid",
    "phase_icon": "----",
    "fusion_heat": "16 (kJ &middot K)",
    "specific_heat": "118 J/(kg &middot; K)",
    "thermal_expansion": "11 &middot; 10<sup>-6</sup> °C<sup>-1</sup>)",
    "vaporization_heat": "530 kJ &middot; mol",
    "electron_configuration": "[Rn] 7s<sup>2</sup> 6d<sup2</sup>",
    "oxidation_state": "+1, +2, +3, +4",
    "ion_charge": "Th<sup>4+</sup>",
    "ionization_potential": "---- eV",
    "atomic_radius": "180 (pm)",
    "covalent_radius": "---- (pm)",
    "van_der_waals_radius": "---- (pm)",
    "electrical_conductivity": "6.7 &middot; 10<sup>6</sup>",
    "electrical_type": "Conductor", 
    "magnetic_type": "----",
    "volume_susceptibility": "0.0000621",
    "mass_susceptibility": "0.0000000053",
    "molar_susceptibility": "1.7 &middot; 10<sup>-9</sup> m<sup>3</sup>/mol",
    "resistivity": "1.5 &middot; 10<sup>-7</sup> m\u03A9",
    "superconducting_point": "-271.77 °C = -457.19 °F = 1.38 K",
    "lattice_structure": "Thorium/Cubic-face-centered.svg.png",
    "crystal_structure": "Face-centered cubic",
    "grid": "a=5.080 \u212B",
    "attitude": "----",
    "debye_temperature": "----",
    "space_group_name": "Fm_3m",
    "space_group_number": "255",
    "CAS_number": "CAS7440-29-1",
    "CID_number": "CID23960",
    "RTEC_number": "RTECSXO6400000",
    "brinell_hardness": "390-1500 MPa",
    "mohs_hardness": "3",
    "vickers_hardness": "295-685",
    "bulk_modulus": "54 GPa",
    "Young_modulus": "79 GPa",
    "liquid_density": "---- (g/cm<sup>3</sup>)",
    "molar_volume": "19.8 (cm<sup>3</sup>/mol)",
    "poisson_ratio": "0.27 &micro;",
    "shear_modulus": "31 GPa",
    "sound_speed": "2490 m/s",
    "refractive_index": "----",
    "thermal_conductivity": "54 W/mK",
    "electronegative": "Pauling Scale 1.3",
    "electron_affinity": "---- KJ/mol",
    "radioactivity": "Yes",
    "half_life": "\u221E",
    "life_time": "\u221E",
    "barn": "7.4 b",
    "hazard_block": [
        {
            "red": "-"
        },
        {
            "yellow": "-"
        },
        {
            "blue": "-"
        },
        {
            "white": "-"
        }
    ],
    "fire_hazard": "----",
    "health_hazard":"----",
    "reactivity": "----",
    "specific": "----",
    "universe_contains": "---- %",
    "sun_contains": "3 &middot; 10<sup>-8</sup> %",
    "oceans_contains": "4 &middot; 10<sup>-12</sup> %",
    "human_body_contains": "---- %",
    "earth_crust_contains": "0.0006 %",
    "meteorites_contains": "3.9 &middot; 10<sup>-6</sup> %",
    "start_isotope_number": 209,
    "stop_isotope_number": 238,
    "half_life_number": ["7 ms", "17 ms", "48 ms", "36 ms", "140 ms", "100 m", "1.2 ss", "26.8 ms", "240 ms", "109 ns", "1.5 ms", "9.7 ms", "1.68 ms", "2.5 ms", "600 ms", "1.5 s", "8.72 m", "30.57 ms", "18.68 days", "1.9116 years", "7.932 &middot; 10<sup>3</sup> years", "7.538 &middot; 10<sup>4</sup> years", "25.52 hours", "1.405 &middot; 10<sup>10</sup> years", "22.3 m", "24.10 days", "7.2 m", "37.5 m", "4.8 m", "9.4 m"],
    "iso_weight": [209.017720, 210.01575, 211.014, 212.01298, 213.01301, 214.01150, 215.01173, 216.01106, 217.013114, 218.013284, 219.015540, 220.015748, 221.018184, 222.018468, 223.020811, 224.021467, 225.023951, 226.024903, 227.0277041, 228.0287411, 229.031762, 230.0331338, 231.0363043, 232.0380553, 233.0415818, 234.043601, 235.047510, 236.049870, 237.053890, 238.056500]
}