{
    "nobelium_No": {
        "allotropes": NaN,
        "alternative_name": NaN,
        "alternative_names": NaN,
        "appearance": NaN,
        "at_t_(k)": NaN,
        "atomic_number": 102,
        "atomic_radius": NaN,
        "atomic_weight": "[259]",
        "band_gap": NaN,
        "boiling_point": NaN,
        "brinell_hardness": NaN,
        "bulk_modulus": NaN,
        "cas_number": "10028-14-5",
        "color": NaN,
        "covalent_radius": NaN,
        "critical_point": NaN,
        "crystal_structure": "face-centered cubic (fcc), (predicted)",
        "curie_point": NaN,
        "density_at_stp": NaN,
        "density_near_rt": "9.9(4) g/cm3 (predicted)",
        "density_when_liquid_at_mp": NaN,
        "discovery": "Joint Institute for Nuclear Research (1966)",
        "discovery_and_first_isolation": NaN,
        "electrical_resistivity": NaN,
        "electron_configuration": "[Rn] 5f14 7s2",
        "electronegativity": "Pauling scale: 1.3 (predicted)",
        "element_category": "actinide",
        "first_isolation": NaN,
        "group_block": "group n/a, f-block",
        "heat_of_fusion": NaN,
        "heat_of_vaporisation": NaN,
        "heat_of_vaporization": NaN,
        "ionisation_energies": NaN,
        "ionization_energies": "1st: 641.6 kJ/mol, 2nd: 1254.3 kJ/mol, 3rd: 2605.1 kJ/mol  (all estimated)",
        "iso": "iso\nNA\nhalf-life\nDM\nDE (MeV)\nDP\n\n\n253No\nsyn\n1.62 min\n80% ?\n8.14, 8.06, 8.04, 8.01\n249Fm\n\n\n20% ?+\n\n253Md\n\n\n254No\nsyn\n51 s\n90% ?\n\n250Fm\n\n\n10% ?+\n\n254Md\n\n\n255No\nsyn\n3.1 min\n61% ?\n8.12, 8.08, 7.93\n251Fm\n\n\n39% ?+\n2.012\n255Md\n\n\n257No\nsyn\n25 s\n99% ?\n8.32, 8.22\n253Fm\n\n\n1% ?+\n\n257Md\n\n\n259No\nsyn\n58 min\n75% ?\n7.69, 7.61, 7.53....\n255Fm\n\n\n25% ?\n\n259Md\n\n\n10% SF",
        "magnetic_ordering": NaN,
        "melting_point": "1100 K (827 \u00b0C, 1521 \u00b0F) (predicted)",
        "mohs_hardness": NaN,
        "molar_heat_capacity": NaN,
        "molar_volume": NaN,
        "name": "Nobelium",
        "named_by": NaN,
        "naming": "after Alfred Nobel",
        "oxidation_states": "2, 3",
        "p_(pa)": NaN,
        "per_shell": "2, 8, 18, 32, 32, 8, 2",
        "period": 7,
        "phase": "solid (predicted)",
        "poisson_ratio": NaN,
        "prediction": NaN,
        "pronunciation": "i/no??b?li?m/ or /no??bi?li?m/, noh-BEL-ee-?m or noh-BEE-lee-?m",
        "proposed_formal_name": NaN,
        "recognised_as_an_element_by": NaN,
        "recognized_as_a_distinct_element_by": NaN,
        "recognized_as_a_unique_metal_by": NaN,
        "recognized_as_an_element_by": NaN,
        "shear_modulus": NaN,
        "speed_of_sound": NaN,
        "speed_of_sound_thin_rod": NaN,
        "sublimation_point": NaN,
        "symbol": "No",
        "tensile_strength": NaN,
        "thermal_conductivity": NaN,
        "thermal_diffusivity": NaN,
        "thermal_expansion": NaN,
        "triple_point": NaN,
        "van_der_waals_radius": NaN,
        "vickers_hardness": NaN,
        "when_liquid_at_bp": NaN,
        "when_liquid_at_mp": NaN,
        "youngs_modulus": NaN
    }
}