{
    "magnesium_Mg": {
        "allotropes": NaN,
        "alternative_name": NaN,
        "alternative_names": NaN,
        "appearance": "shiny grey solid",
        "at_t_(k)": 701.0,
        "atomic_number": 12,
        "atomic_radius": "empirical: 160 pm",
        "atomic_weight": "24.305 (24.304\u201324.307)",
        "band_gap": NaN,
        "boiling_point": "1363 K (1091 \u00b0C, 1994 \u00b0F)",
        "brinell_hardness": "44\u2013260 MPa",
        "bulk_modulus": "45 GPa",
        "cas_number": "7439-95-4",
        "color": NaN,
        "covalent_radius": "141\u00b17 pm",
        "critical_point": NaN,
        "crystal_structure": "hexagonal close-packed (hcp)",
        "curie_point": NaN,
        "density_at_stp": NaN,
        "density_near_rt": "1.738 g/cm3",
        "density_when_liquid_at_mp": NaN,
        "discovery": "Joseph Black (1755)",
        "discovery_and_first_isolation": NaN,
        "electrical_resistivity": "43.9 n?\u00b7m (at 20 \u00b0C)",
        "electron_configuration": "[Ne] 3s2",
        "electronegativity": "Pauling scale: 1.31",
        "element_category": "alkaline earth metal",
        "first_isolation": "Humphry Davy (1808)",
        "group_block": "group 2 (alkaline earth metals), s-block",
        "heat_of_fusion": "8.48 kJ/mol",
        "heat_of_vaporisation": NaN,
        "heat_of_vaporization": "128 kJ/mol",
        "ionisation_energies": NaN,
        "ionization_energies": "1st: 737.7 kJ/mol, 2nd: 1450.7 kJ/mol, 3rd: 7732.7 kJ/mol, (more)",
        "iso": "iso, NA, half-life, DM, DE (MeV), DP, 24Mg, 79.0%, 24Mg is stable with 12 neutrons, 25Mg, 10.0%, 25Mg is stable with 13 neutrons, 26Mg, 11.0%, 26Mg is stable with 14 neutrons",
        "magnetic_ordering": "paramagnetic",
        "melting_point": "923 K (650 \u00b0C, 1202 \u00b0F)",
        "mohs_hardness": "1\u20132.5",
        "molar_heat_capacity": "24.869 J/(mol\u00b7K)",
        "molar_volume": NaN,
        "name": "Magnesium",
        "named_by": NaN,
        "naming": "after Magnesia, Greece",
        "oxidation_states": "+2, +1 (a strongly basic oxide)",
        "p_(pa)": "vapor pressure, P (Pa), 1, 10, 100, 1 k, 10 k, 100 k, at T (K), 701, 773, 861, 971, 1132, 1361",
        "per_shell": "2, 8, 2",
        "period": 3,
        "phase": "solid",
        "poisson_ratio": "0.29",
        "prediction": NaN,
        "pronunciation": "/m\u00e6??ni?zi?m/, mag-NEE-zee-?m",
        "proposed_formal_name": NaN,
        "recognised_as_an_element_by": NaN,
        "recognized_as_a_distinct_element_by": NaN,
        "recognized_as_a_unique_metal_by": NaN,
        "recognized_as_an_element_by": NaN,
        "shear_modulus": "17 GPa",
        "speed_of_sound": NaN,
        "speed_of_sound_thin_rod": "4940 m/s (at r.t.) (annealed)",
        "sublimation_point": NaN,
        "symbol": "Mg",
        "tensile_strength": NaN,
        "thermal_conductivity": "156 W/(m\u00b7K)",
        "thermal_diffusivity": NaN,
        "thermal_expansion": "24.8 \u00b5m/(m\u00b7K) (at 25 \u00b0C)",
        "triple_point": NaN,
        "van_der_waals_radius": "173 pm",
        "vickers_hardness": NaN,
        "when_liquid_at_bp": NaN,
        "when_liquid_at_mp": "1.584 g/cm3",
        "youngs_modulus": "45 GPa"
    }
}