var element_data = {
    "wiki": "https://en.wikipedia.org/wiki/Krypton",
    "video": "https://www.youtube.com/watch?v=il4OOY7Zseg&list=PL7A1F4CF36C085DE1&index=36",
    "image": "Krypton/krypton.jpg",
    "species": "NOBLE GASES",
    "symbol": "Kr",
    "latin_name": "Krypton",
    "english_name": "Krypton",
    "year_discovered": "1898",
    "discovered_by": "Sir William Ramsay, Morris William Travers",
    "Electron_shell": [
        {
            "K": 2
        },
        {
            "L": 8
        },
        {
            "M": 18
        },
        {
            "N": 8
        },
        {
            "O": 0
        },
        {
            "P": 0
        },
        {
            "Q": 0
        },
        {
            "R": 0
        }
    ],
    "epn_no": [
        {
            "electrons": 36,
        },
        {
            "protons": 36,
        },
        {
            "neutrons": 48
        }
    ],
    "atomic_number": 36,
    "atomic_weight": "83.798 (g/mol)",
    "density": "0.003749 (g/cm³)",
    "melting_point": "-157.37 °C = -251.27 °F = 115.78 K",
    "boiling_point": "-153.4 °C = -244.12 °F = 119.75 K",
    "valence_electrons": "2",
    "period": 4,
    "group": "VIII A",
    "block": "p-block",
    "emission_spectrum": "Krypton/Kr.gif",
    "phase": "Gas",
    "phase_icon": "----",
    "fusion_heat": "1.64 (kJ &middot K)",
    "specific_heat": "248.05 J/(kg &middot; K)",
    "thermal_expansion": "---- °C<sup>-1</sup>)",
    "vaporization_heat": "9.02 kJ &middot; mol",
    "electron_configuration": "[Ar] 3d<sup>10</sup>4s<sup>2</sup>4p<sup>6</sup>",
    "oxidation_state": "+2",
    "ion_charge": "----",
    "ionization_potential": "13.94 eV",
    "atomic_radius": "88 (pm)",
    "covalent_radius": "110 (pm)",
    "van_der_waals_radius": "202 (pm)",
    "electrical_conductivity": "----",
    "electrical_type": "----", 
    "magnetic_type": "Diamagnetic",
    "volume_susceptibility": "-0.0000000165",
    "mass_susceptibility": "-0.0000000044",
    "molar_susceptibility": "-3.69 &middot; 10<sup>-10</sup> m<sup>3</sup>/mol",
    "resistivity": "---- m\u03A9",
    "superconducting_point": "----",
    "lattice_structure": "Krypton/Cubic-face-centered.svg.png",
    "crystal_structure": "Face-centered cubic",
    "grid": "a=5.638 \u212B",
    "attitude": "----",
    "debye_temperature": "-201.15 °C = -330.07 °F = 72 K",
    "space_group_name": "Fm_3m",
    "space_group_number": "225",
    "CAS_number": "CAS7439-90-9",
    "CID_number": "CID5416",
    "RTEC_number": "RTECSOC6772500",
    "brinell_hardness": "---- MPa",
    "mohs_hardness": "----",
    "vickers_hardness": "----",
    "bulk_modulus": "---- GPa",
    "Young_modulus": "---- GPa",
    "liquid_density": "---- (g/cm<sup>3</sup>)",
    "molar_volume": "32.2 (cm<sup>3</sup>/mol)",
    "poisson_ratio": "----",
    "shear_modulus": "---- GPa",
    "sound_speed": "1120 m/s",
    "refractive_index": "1.000427",
    "thermal_conductivity": "0.00943 W/mK",
    "electronegative": "Pauling Scale 3",
    "electron_affinity": "0 KJ/mol",
    "radioactivity": "no",
    "half_life": "\u221E",
    "life_time": "\u221E",
    "barn": "25 b",
    "hazard_block": [
        {
            "red": "-"
        },
        {
            "yellow": "-"
        },
        {
            "blue": "-"
        },
        {
            "white": "-"
        }
    ],
    "fire_hazard": "----",
    "health_hazard": "----",
    "reactivity": "----",
    "specific": "----",
    "universe_contains": "4 &middot; 10<sup>-7</sup> %",
    "sun_contains": "2.1 &middot; 10<sup>-8</sup> %",
    "oceans_contains": "2.1 &middot; 10<sup>-8</sup> %",
    "human_body_contains": "---- %",
    "earth_crust_contains": "1.5 &middot; 10<sup>-8</sup> %",
    "meteorites_contains": "---- %",
    "start_isotope_number": 69,
    "stop_isotope_number": 76,
    "half_life_number": ["32 ms", "57 ms", "100 ms", "17.16 s", "28.6 s", "11.50 m", "4.29 m", "14.8 hours", "107 ns", "29 ns"],
    "iso_weight": [68.96518, 69.95526, 70.94963, 71.94209, 72.93928, 73.93308, 74.93094, 75.92591, NaN, NaN]
}