{
    "krypton_Kr": {
        "allotropes": NaN,
        "alternative_name": NaN,
        "alternative_names": NaN,
        "appearance": "colorless gas, exhibiting a whitish glow in a high electric field",
        "at_t_(k)": 59.0,
        "atomic_number": 36,
        "atomic_radius": NaN,
        "atomic_weight": "83.798(2)",
        "band_gap": NaN,
        "boiling_point": "119.93 K (?153.415 \u00b0C, ?244.147 \u00b0F)",
        "brinell_hardness": NaN,
        "bulk_modulus": NaN,
        "cas_number": "7439-90-9",
        "color": NaN,
        "covalent_radius": "116\u00b14 pm",
        "critical_point": "209.48 K, 5.525 MPa",
        "crystal_structure": "face-centered cubic (fcc)",
        "curie_point": NaN,
        "density_at_stp": "3.749 g/L",
        "density_near_rt": NaN,
        "density_when_liquid_at_mp": NaN,
        "discovery": NaN,
        "discovery_and_first_isolation": "William Ramsay and Morris Travers (1898)",
        "electrical_resistivity": NaN,
        "electron_configuration": "[Ar] 3d10 4s2 4p6",
        "electronegativity": "Pauling scale: 3.00",
        "element_category": "noble gas",
        "first_isolation": NaN,
        "group_block": "group 18 (noble gases), p-block",
        "heat_of_fusion": "1.64 kJ/mol",
        "heat_of_vaporisation": NaN,
        "heat_of_vaporization": "9.08 kJ/mol",
        "ionisation_energies": NaN,
        "ionization_energies": "1st: 1350.8 kJ/mol, 2nd: 2350.4 kJ/mol, 3rd: 3565 kJ/mol",
        "iso": "iso\nNA\nhalf-life\nDM\nDE (MeV)\nDP\n\n\n78Kr\n0.36%\n78Kr is stable with 42 neutrons\n\n\n79Kr\nsyn\n35.04 h\n?\n\u2013\n79Br\n\n\n?+\n0.604\n79Br\n\n\n?\n0.26, 0.39, 0.60\n\u2013\n\n\n80Kr\n2.29%\n80Kr is stable with 44 neutrons\n\n\n81Kr\ntrace\n2.29\u00d7105 y\n?\n\u2013\n81Br\n\n\n?\n0.281\n\u2013\n\n\n82Kr\n11.59%\n82Kr is stable with 46 neutrons\n\n\n83Kr\n11.50%\n83Kr is stable with 47 neutrons\n\n\n84Kr\n56.99%\n84Kr is stable with 48 neutrons\n\n\n85Kr\nsyn\n10.756 y\n??\n0.687\n85Rb\n\n\n86Kr\n17.28%\n86Kr is stable with 50 neutrons",
        "magnetic_ordering": "diamagnetic",
        "melting_point": "115.78 K (?157.37 \u00b0C, ?251.27 \u00b0F)",
        "mohs_hardness": NaN,
        "molar_heat_capacity": "20.95 J/(mol\u00b7K)",
        "molar_volume": NaN,
        "name": "Krypton",
        "named_by": NaN,
        "naming": NaN,
        "oxidation_states": "2, 1, 0 (rarely more than 0; unknown oxide)",
        "p_(pa)": "vapor pressure, P (Pa), 1, 10, 100, 1 k, 10 k, 100 k, at T (K), 59, 65, 74, 84, 99, 120",
        "per_shell": "2, 8, 18, 8",
        "period": 4,
        "phase": "gas",
        "poisson_ratio": NaN,
        "prediction": NaN,
        "pronunciation": "/?kr?pt?n/, KRIP-ton",
        "proposed_formal_name": NaN,
        "recognised_as_an_element_by": NaN,
        "recognized_as_a_distinct_element_by": NaN,
        "recognized_as_a_unique_metal_by": NaN,
        "recognized_as_an_element_by": NaN,
        "shear_modulus": NaN,
        "speed_of_sound": "(gas, 23 \u00b0C) 220 m\u00b7s?1\n(liquid) 1120 m/s",
        "speed_of_sound_thin_rod": NaN,
        "sublimation_point": NaN,
        "symbol": "Kr",
        "tensile_strength": NaN,
        "thermal_conductivity": "9.43\u00d710?3  W/(m\u00b7K)",
        "thermal_diffusivity": NaN,
        "thermal_expansion": NaN,
        "triple_point": "115.775 K, 73.53 kPa",
        "van_der_waals_radius": "202 pm",
        "vickers_hardness": NaN,
        "when_liquid_at_bp": "2.413 g/cm3",
        "when_liquid_at_mp": NaN,
        "youngs_modulus": NaN
    }
}