var element_data = {
    "wiki": "https://en.wikipedia.org/wiki/Oganesson",
    "video": "https://www.youtube.com/watch?v=VMv44bIBdQI&list=PL7A1F4CF36C085DE1&index=118",
    "image": "Oganesson/oganesson.jpg",
    "species": "NOBLE GASES",
    "symbol": "Og",
    "latin_name": "Oganesson",
    "english_name": "Oganesson",
    "year_discovered": "2002-2005",
    "discovered_by": "Joint Institute for Nuclear Research (JINR)",
    "Electron_shell": [
        {
            "K": 2
        },
        {
            "L": 8
        },
        {
            "M": 18
        },
        {
            "N": 32
        },
        {
            "O": 32
        },
        {
            "P": 18
        },
        {
            "Q": 8
        },
        {
            "R": 0
        }
    ],
    "epn_no": [
        {
            "electrons": 118,
        },
        {
            "protons": 118,
        },
        {
            "neutrons": 176
        }
    ],
    "atomic_number": 118,
    "atomic_weight": "294.2139 (g/mol)",
    "density": "5 (g/cm³)",
    "melting_point": "----",
    "boiling_point": "95 °C = 203.00 °F = 368.15 K",
    "valence_electrons": "----",
    "period": 7,
    "group": "VII A",
    "block": "p-block",
    "emission_spectrum": "Oganesson/Og.gif",
    "phase": "Liquid",
    "phase_icon": "----",
    "fusion_heat": "---- (kJ &middot K)",
    "specific_heat": "---- J/(kg &middot; K)",
    "thermal_expansion": "---- &middot; 10<sup>-6</sup>°C<sup>-1</sup>)",
    "vaporization_heat": "---- kJ &middot; mol",
    "electron_configuration": "[Rn] 7s<sup>2</sup> 5f<sup>14</sup> 6d<sup>10</sup> 7p<sup>6</sup>",
    "oxidation_state": "----",
    "ion_charge": "----",
    "ionization_potential": "---- eV",
    "atomic_radius": "152 (pm)",
    "covalent_radius": "---- (pm)",
    "van_der_waals_radius": "---- (pm)",
    "electrical_conductivity": "----",
    "electrical_type": "----", 
    "magnetic_type": "----",
    "volume_susceptibility": "----",
    "mass_susceptibility": "----",
    "molar_susceptibility": "----",
    "resistivity": "---- m\u03A9",
    "superconducting_point": "----",
    "lattice_structure": "Oganesson/Cubic-face-centered.svg.png",
    "crystal_structure": "Face-centered cubic",
    "grid": "----",
    "attitude": "----",
    "debye_temperature": "----",
    "space_group_name": "----",
    "space_group_number": "----",
    "CAS_number": "CAS54144-19-3",
    "CID_number": "----",
    "RTEC_number": "----",
    "brinell_hardness": "---- MPa",
    "mohs_hardness": "----",
    "vickers_hardness": "----",
    "bulk_modulus": "---- GPa",
    "Young_modulus": "---- GPa",
    "liquid_density": "---- (g/cm<sup>3</sup>)",
    "molar_volume": "---- (cm<sup>3</sup>/mol)",
    "poisson_ratio": "----",
    "shear_modulus": "---- GPa",
    "sound_speed": "---- m/s",
    "refractive_index": "----",
    "thermal_conductivity": "---- W/mK",
    "electronegative": "Pauling Scale ----",
    "electron_affinity": "---- KJ/mol",
    "radioactivity": "yes",
    "half_life": "0.005",
    "life_time": "0.007",
    "barn": "0 b",
    "hazard_block": [
        {
            "red": "-"
        },
        {
            "yellow": "-"
        },
        {
            "blue": "-"
        },
        {
            "white": "-"
        }
    ],
    "fire_hazard": "----",
    "health_hazard":"----",
    "reactivity": "----",
    "specific": "----",
    "universe_contains": "---- %",
    "sun_contains": "---- %",
    "oceans_contains": "---- %",
    "human_body_contains": "---- %",
    "earth_crust_contains": "---- %",
    "meteorites_contains": "---- %",
    "start_isotope_number": 293,
    "stop_isotope_number": 293,
    "half_life_number": ["1 ms"],
    "iso_weight": [293.21350]
}