{
    "ununoctium_Uuo": {
        "allotropes": NaN,
        "alternative_name": NaN,
        "alternative_names": "element 118, eka-radon",
        "appearance": NaN,
        "at_t_(k)": NaN,
        "atomic_number": 118,
        "atomic_radius": NaN,
        "atomic_weight": "[294]",
        "band_gap": NaN,
        "boiling_point": "350\u00b130 K (80\u00b130 \u00b0C, 170\u00b150 \u00b0F) (extrapolated)",
        "brinell_hardness": NaN,
        "bulk_modulus": NaN,
        "cas_number": "54144-19-3",
        "color": NaN,
        "covalent_radius": "157 pm (predicted)",
        "critical_point": "439 K, 6.8 MPa (extrapolated)",
        "crystal_structure": NaN,
        "curie_point": NaN,
        "density_at_stp": NaN,
        "density_near_rt": NaN,
        "density_when_liquid_at_mp": "4.9\u20135.1 g/cm3 (predicted)",
        "discovery": "Joint Institute for Nuclear Research and Lawrence Livermore National Laboratory (2002)",
        "discovery_and_first_isolation": NaN,
        "electrical_resistivity": NaN,
        "electron_configuration": "[Rn] 5f14 6d10 7s2 7p6 (predicted)",
        "electronegativity": NaN,
        "element_category": "unknown, but predicted to be a noble gas",
        "first_isolation": NaN,
        "group_block": "group 18, p-block",
        "heat_of_fusion": "23.5 kJ/mol (extrapolated)",
        "heat_of_vaporisation": NaN,
        "heat_of_vaporization": "19.4 kJ/mol (extrapolated)",
        "ionisation_energies": NaN,
        "ionization_energies": "1st: 839.4 kJ/mol (predicted), 2nd: 1563.1 kJ/mol (predicted)",
        "iso": "iso, NA, half-life, DM, DE (MeV), DP, 294Uuo, syn, ~0.89 ms, ?, 11.65\u00b10.06, 290Lv, SF",
        "magnetic_ordering": NaN,
        "melting_point": NaN,
        "mohs_hardness": NaN,
        "molar_heat_capacity": NaN,
        "molar_volume": NaN,
        "name": "Ununoctium",
        "named_by": NaN,
        "naming": "IUPAC systematic element name",
        "oxidation_states": "?1, 0, +1, +2, +4, +6 (predicted)",
        "p_(pa)": NaN,
        "per_shell": "2, 8, 18, 32, 32, 18, 8 (predicted)",
        "period": 7,
        "phase": "solid (predicted)",
        "poisson_ratio": NaN,
        "prediction": "Niels Bohr (1922)",
        "pronunciation": "i/u?n.u?n??kti?m/, oon-oon-OK-tee-?m",
        "proposed_formal_name": "oganesson, Og",
        "recognised_as_an_element_by": NaN,
        "recognized_as_a_distinct_element_by": NaN,
        "recognized_as_a_unique_metal_by": NaN,
        "recognized_as_an_element_by": NaN,
        "shear_modulus": NaN,
        "speed_of_sound": NaN,
        "speed_of_sound_thin_rod": NaN,
        "sublimation_point": NaN,
        "symbol": "Uuo",
        "tensile_strength": NaN,
        "thermal_conductivity": NaN,
        "thermal_diffusivity": NaN,
        "thermal_expansion": NaN,
        "triple_point": NaN,
        "van_der_waals_radius": NaN,
        "vickers_hardness": NaN,
        "when_liquid_at_bp": NaN,
        "when_liquid_at_mp": NaN,
        "youngs_modulus": NaN
    }
}