{
    "boron_B": {
        "allotropes": "?-, ?-rhombohedral, ?-tetragonal (and more)",
        "alternative_name": NaN,
        "alternative_names": NaN,
        "appearance": "black-brown",
        "at_t_(k)": 2348.0,
        "atomic_number": 5,
        "atomic_radius": "empirical: 90 pm",
        "atomic_weight": "10.81 (10.806\u201310.821)",
        "band_gap": NaN,
        "boiling_point": "4200 K (3927 \u00b0C, 7101 \u00b0F)",
        "brinell_hardness": NaN,
        "bulk_modulus": NaN,
        "cas_number": "7440-42-8",
        "color": NaN,
        "covalent_radius": "84\u00b13 pm",
        "critical_point": NaN,
        "crystal_structure": "rhombohedral",
        "curie_point": NaN,
        "density_at_stp": NaN,
        "density_near_rt": NaN,
        "density_when_liquid_at_mp": "2.08 g/cm3",
        "discovery": "Joseph Louis Gay-Lussac and Louis Jacques Th\u00e9nard (30 June 1808)",
        "discovery_and_first_isolation": NaN,
        "electrical_resistivity": "~106 ?\u00b7m (at 20 \u00b0C)",
        "electron_configuration": "[He] 2s2 2p1",
        "electronegativity": "Pauling scale: 2.04",
        "element_category": "metalloid",
        "first_isolation": "Humphry Davy (9 July 1808)",
        "group_block": "group 13, p-block",
        "heat_of_fusion": "50.2 kJ/mol",
        "heat_of_vaporisation": NaN,
        "heat_of_vaporization": "508 kJ/mol",
        "ionisation_energies": NaN,
        "ionization_energies": "1st: 800.6 kJ/mol, 2nd: 2427.1 kJ/mol, 3rd: 3659.7 kJ/mol, (more)",
        "iso": "iso, NA, half-life, DM, DE (MeV), DP, 10B, 20%, 10B is stable with 5 neutrons, 11B, 80%, 11B is stable with 6 neutrons",
        "magnetic_ordering": "diamagnetic",
        "melting_point": "2349 K (2076 \u00b0C, 3769 \u00b0F)",
        "mohs_hardness": "~9.5",
        "molar_heat_capacity": "11.087 J/(mol\u00b7K)",
        "molar_volume": NaN,
        "name": "Boron",
        "named_by": NaN,
        "naming": NaN,
        "oxidation_states": "3, 2, 1, ?1, ?5 (a mildly acidic oxide)",
        "p_(pa)": "vapor pressure, P (Pa), 1, 10, 100, 1 k, 10 k, 100 k, at T (K), 2348, 2562, 2822, 3141, 3545, 4072",
        "per_shell": "2, 3",
        "period": 2,
        "phase": "solid",
        "poisson_ratio": NaN,
        "prediction": NaN,
        "pronunciation": "/?b??r?n/",
        "proposed_formal_name": NaN,
        "recognised_as_an_element_by": NaN,
        "recognized_as_a_distinct_element_by": NaN,
        "recognized_as_a_unique_metal_by": NaN,
        "recognized_as_an_element_by": NaN,
        "shear_modulus": NaN,
        "speed_of_sound": NaN,
        "speed_of_sound_thin_rod": "16,200 m/s (at 20 \u00b0C)",
        "sublimation_point": NaN,
        "symbol": "B",
        "tensile_strength": NaN,
        "thermal_conductivity": "27.4 W/(m\u00b7K)",
        "thermal_diffusivity": NaN,
        "thermal_expansion": "? form: 5\u20137 \u00b5m/(m\u00b7K) (at 25 \u00b0C)",
        "triple_point": NaN,
        "van_der_waals_radius": "192 pm",
        "vickers_hardness": NaN,
        "when_liquid_at_bp": NaN,
        "when_liquid_at_mp": NaN,
        "youngs_modulus": NaN
    }
}