var element_data = {
    "wiki": "https://en.wikipedia.org/wiki/Boron",
    "video": "https://www.youtube.com/watch?v=JzqdHkpXuy4&list=PL7A1F4CF36C085DE1&index=5",
    "image": "Boron/boron.jpg",
    "species": "METALLOIDS",
    "symbol": "B",
    "latin_name": "Boron",
    "english_name": "Boron",
    "year_discovered": "1808",
    "discovered_by": "Joseph Louis Gay-Lussac, Louis Jacques Thénard, Humphry Davy",
    "Electron_shell": [
        {
            "K": 2
        },
        {
            "L": 3
        },
        {
            "M": 0
        },
        {
            "N": 0
        },
        {
            "O": 0
        },
        {
            "P": 0
        },
        {
            "Q": 0
        },
        {
            "R": 0
        }
    ],
    "epn_no": [
        {
            "electrons": 5,
        },
        {
            "protons": 5,
        },
        {
            "neutrons": 6
        }
    ],
    "atomic_number": 5,
    "atomic_weight": "10.811 (g/mol)",
    "density": "2.34 (g/cm³)",
    "melting_point": "2075.8 °C = 3768.44 °F = 2348.95 K",
    "boiling_point": "3926.8 °C = 7100.24 °F = 4199.95 K",
    "valence_electrons": "3",
    "period": 2,
    "group": "III A",
    "block": "p-block",
    "emission_spectrum": "Boron/B.gif",
    "phase": "Solid",
    "phase_icon": "----",
    "fusion_heat": "50 (kJ &middot K)",
    "specific_heat": "1030 J/(kg &middot; K)",
    "thermal_expansion": "6 &middot; 10<sup>-6</sup>°C<sup>-1</sup>)",
    "vaporization_heat": "507 kJ &middot; mol",
    "electron_configuration": "[He] 2s<sup>2</sup>2p<sup>1</sup>",
    "oxidation_state": "-4, -3, -1, +1, +2, +3",
    "ion_charge": "----",
    "ionization_potential": "8.33 ev",
    "atomic_radius": "98 (pm)",
    "covalent_radius": "82 (pm)",
    "van_der_waals_radius": "192 (pm)",
    "electrical_conductivity": "0.0001",
    "electrical_type": "Dielectric", 
    "magnetic_type": "Diamagnetic",
    "volume_susceptibility": "-0.0000214",
    "mass_susceptibility": "-0.0000000087",
    "molar_susceptibility": "-9.41 &middot; 10<sup>-11</sup> m<sup>3</sup>/mol",
    "resistivity": "10000 m\u03A9",
    "superconducting_point": "----",
    "lattice_structure": "Boron/Rhombohedral.svg.png",
    "crystal_structure": "Rhombohedral",
    "grid": "a=10.17 \u212B; α=65.18° ",
    "attitude": "0.576",
    "debye_temperature": "976.85 °C = 1790.33 °F = 1250 K",
    "space_group_name": "R_3m",
    "space_group_number": "166",
    "CAS_number": "CAS7440-42-8",
    "CID_number": "CID5462311",
    "RTEC_number": "RTECSED7350000",
    "brinell_hardness": "---- MPa",
    "mohs_hardness": "9.5",
    "vickers_hardness": "----",
    "bulk_modulus": "---- GPa",
    "Young_modulus": "1050 GPa",
    "liquid_density": "---- (g/cm<sup>3</sup>)",
    "molar_volume": "4.6 (cm<sup>3</sup>/mol)",
    "poisson_ratio": "----",
    "shear_modulus": "---- GPa",
    "sound_speed": "16200 m/s",
    "refractive_index": "----",
    "thermal_conductivity": "27 W/mK",
    "electronegative": "Pauling Scale 2.04",
    "electron_affinity": "26.7 KJ/mol",
    "radioactivity": "no",
    "half_life": "\u221E",
    "life_time": "\u221E",
    "barn": "755 b",
    "hazard_block": [
        {
            "red": "3"
        },
        {
            "yellow": "0"
        },
        {
            "blue": "2"
        },
        {
            "white": "-"
        }
    ],
    "fire_hazard": "Below 93.3 °C",
    "health_hazard":"Hazardous",
    "reactivity": "stable",
    "specific": "----",
    "universe_contains": "1 &middot; 10<sup>-7</sup> %",
    "sun_contains": "2 &middot; 10<sup>-7</sup> %",
    "oceans_contains": "0.00044 %",
    "human_body_contains": "0.00007 %",
    "earth_crust_contains": "0.00086 %",
    "meteorites_contains": "0.00016 %",
    "start_isotope_number": 6,
    "stop_isotope_number": 19,
    "half_life_number": ["-", "350 years", "770 ms", "800 zs", "-", "-", "20.20 s", "17.33 s", "12.5 s", "9.87", "190 ps", "5.08 s", "26 ns", "2.92 s"],
    "iso_weight": [6.04681, 7.02992, 8.024607, 9.013328, 10.01293, 11.00930, 12.01435, 13.01778, 14.02540, 16.03981, 17.04699, 18.05617, 19.06373]
}