{
    "ruthenium_Ru": {
        "allotropes": NaN,
        "alternative_name": NaN,
        "alternative_names": NaN,
        "appearance": "silvery white metallic",
        "at_t_(k)": 2588.0,
        "atomic_number": 44,
        "atomic_radius": "empirical: 134 pm",
        "atomic_weight": "101.07(2)",
        "band_gap": NaN,
        "boiling_point": "4423 K (4150 \u00b0C, 7502 \u00b0F)",
        "brinell_hardness": "2160 MPa",
        "bulk_modulus": "220 GPa",
        "cas_number": "7440-18-8",
        "color": NaN,
        "covalent_radius": "146\u00b17 pm",
        "critical_point": NaN,
        "crystal_structure": "hexagonal close-packed (hcp)",
        "curie_point": NaN,
        "density_at_stp": NaN,
        "density_near_rt": "12.45 g/cm3",
        "density_when_liquid_at_mp": NaN,
        "discovery": NaN,
        "discovery_and_first_isolation": "Karl Ernst Claus (1844)",
        "electrical_resistivity": "71 n?\u00b7m (at 0 \u00b0C)",
        "electron_configuration": "[Kr] 4d7 5s1",
        "electronegativity": "Pauling scale: 2.2",
        "element_category": "transition metal",
        "first_isolation": NaN,
        "group_block": "group 8, d-block",
        "heat_of_fusion": "38.59 kJ/mol",
        "heat_of_vaporisation": NaN,
        "heat_of_vaporization": "619 kJ/mol",
        "ionisation_energies": NaN,
        "ionization_energies": "1st: 710.2 kJ/mol, 2nd: 1620 kJ/mol, 3rd: 2747 kJ/mol",
        "iso": "iso\nNA\nhalf-life\nDM\nDE (MeV)\nDP\n\n\n96Ru\n5.54%\n96Ru is stable with 52 neutrons\n\n\n97Ru\nsyn\n2.9 d\n?\n\u2013\n97Tc\n\n\n?\n0.215, 0.324\n\u2013\n\n\n98Ru\n1.87%\n98Ru is stable with 54 neutrons\n\n\n99Ru\n12.76%\n99Ru is stable with 55 neutrons\n\n\n100Ru\n12.60%\n100Ru is stable with 56 neutrons\n\n\n101Ru\n17.06%\n101Ru is stable with 57 neutrons\n\n\n102Ru\n31.55%\n102Ru is stable with 58 neutrons\n\n\n103Ru\nsyn\n39.26 d\n??\n0.226\n103Rh\n\n\n?\n0.497\n\u2013\n\n\n104Ru\n18.62%\n104Ru is stable with 60 neutrons\n\n\n106Ru\nsyn\n373.59 d\n??\n0.039\n106Rh",
        "magnetic_ordering": "paramagnetic",
        "melting_point": "2607 K (2334 \u00b0C, 4233 \u00b0F)",
        "mohs_hardness": "6.5",
        "molar_heat_capacity": "24.06 J/(mol\u00b7K)",
        "molar_volume": NaN,
        "name": "Ruthenium",
        "named_by": NaN,
        "naming": "after Ruthenia (Latin for: medieval Kyivska Rus' region)",
        "oxidation_states": "-4, -2, 1, 2, 3, 4, 5, 6, 7, 8 (a mildly acidic oxide)",
        "p_(pa)": "vapor pressure, P (Pa), 1, 10, 100, 1 k, 10 k, 100 k, at T (K), 2588, 2811, 3087, 3424, 3845, 4388",
        "per_shell": "2, 8, 18, 15, 1",
        "period": 5,
        "phase": NaN,
        "poisson_ratio": "0.3",
        "prediction": NaN,
        "pronunciation": "/ru???i?ni?m/, roo-THEE-nee-?m",
        "proposed_formal_name": NaN,
        "recognised_as_an_element_by": NaN,
        "recognized_as_a_distinct_element_by": NaN,
        "recognized_as_a_unique_metal_by": NaN,
        "recognized_as_an_element_by": NaN,
        "shear_modulus": "173 GPa",
        "speed_of_sound": NaN,
        "speed_of_sound_thin_rod": "5970 m/s (at 20 \u00b0C)",
        "sublimation_point": NaN,
        "symbol": "Ru",
        "tensile_strength": NaN,
        "thermal_conductivity": "117 W/(m\u00b7K)",
        "thermal_diffusivity": NaN,
        "thermal_expansion": "6.4 \u00b5m/(m\u00b7K) (at 25 \u00b0C)",
        "triple_point": NaN,
        "van_der_waals_radius": NaN,
        "vickers_hardness": NaN,
        "when_liquid_at_bp": NaN,
        "when_liquid_at_mp": "10.65 g/cm3",
        "youngs_modulus": "447 GPa"
    }
}