{
    "technetium_Tc": {
        "allotropes": NaN,
        "alternative_name": NaN,
        "alternative_names": NaN,
        "appearance": "shiny gray metal",
        "at_t_(k)": 2727.0,
        "atomic_number": 43,
        "atomic_radius": "empirical: 136 pm",
        "atomic_weight": "[98]",
        "band_gap": NaN,
        "boiling_point": "4538 K (4265 \u00b0C, 7709 \u00b0F)",
        "brinell_hardness": NaN,
        "bulk_modulus": NaN,
        "cas_number": "7440-26-8",
        "color": NaN,
        "covalent_radius": "147\u00b17 pm",
        "critical_point": NaN,
        "crystal_structure": "hexagonal close-packed (hcp)",
        "curie_point": NaN,
        "density_at_stp": NaN,
        "density_near_rt": "11 g/cm3",
        "density_when_liquid_at_mp": NaN,
        "discovery": NaN,
        "discovery_and_first_isolation": "Emilio Segr\u00e8 and Carlo Perrier (1937)",
        "electrical_resistivity": "200 n?\u00b7m (at 20 \u00b0C)",
        "electron_configuration": "[Kr] 4d5 5s2",
        "electronegativity": "Pauling scale: 1.9",
        "element_category": "transition metal",
        "first_isolation": NaN,
        "group_block": "group 7, d-block",
        "heat_of_fusion": "33.29 kJ/mol",
        "heat_of_vaporisation": NaN,
        "heat_of_vaporization": "585.2 kJ/mol",
        "ionisation_energies": NaN,
        "ionization_energies": "1st: 702 kJ/mol, 2nd: 1470 kJ/mol, 3rd: 2850 kJ/mol",
        "iso": "iso\nNA\nhalf-life\nDM\nDE (MeV)\nDP\n\n\n95mTc\nsyn\n61 d\n?\n\u2013\n95Mo\n\n\n?\n0.204, 0.582,\n0.835\n\u2013\n\n\nIT\n0.0389, e\n95Tc\n\n\n96Tc\nsyn\n4.3 d\n?\n\u2013\n96Mo\n\n\n?\n0.778, 0.849,\n0.812\n\u2013\n\n\n97Tc\nsyn\n2.6\u00d7106 y\n?\n\u2013\n97Mo\n\n\n97mTc\nsyn\n91 d\nIT\n0.965, e\n97Tc\n\n\n98Tc\nsyn\n4.2\u00d7106 y\n??\n0.4\n98Ru\n\n\n?\n0.745, 0.652\n\u2013\n\n\n99Tc\ntrace\n2.111\u00d7105 y\n??\n0.294\n99Ru\n\n\n99mTc\nsyn\n6.01 h\nIT\n0.142, 0.002\n99Tc\n\n\n?\n0.140\n\u2013",
        "magnetic_ordering": "Paramagnetic",
        "melting_point": "2430 K (2157 \u00b0C, 3915 \u00b0F)",
        "mohs_hardness": NaN,
        "molar_heat_capacity": "24.27 J/(mol\u00b7K)",
        "molar_volume": NaN,
        "name": "Technetium",
        "named_by": NaN,
        "naming": NaN,
        "oxidation_states": "7, 6, 5, 4, 3, 2, 1, ?1, ?3 (a strongly acidic oxide)",
        "p_(pa)": "vapor pressure (extrapolated), P (Pa), 1, 10, 100, 1 k, 10 k, 100 k, at T (K), 2727, 2998, 3324, 3726, 4234, 4894",
        "per_shell": "2, 8, 18, 13, 2",
        "period": 5,
        "phase": "solid",
        "poisson_ratio": NaN,
        "prediction": "Dmitri Mendeleev (1871)",
        "pronunciation": "/t?k?ni??i?m/, tek-NEE-shee-?m",
        "proposed_formal_name": NaN,
        "recognised_as_an_element_by": NaN,
        "recognized_as_a_distinct_element_by": NaN,
        "recognized_as_a_unique_metal_by": NaN,
        "recognized_as_an_element_by": NaN,
        "shear_modulus": NaN,
        "speed_of_sound": NaN,
        "speed_of_sound_thin_rod": "16,200 m/s (at 20 \u00b0C)",
        "sublimation_point": NaN,
        "symbol": "Tc",
        "tensile_strength": NaN,
        "thermal_conductivity": "50.6 W/(m\u00b7K)",
        "thermal_diffusivity": NaN,
        "thermal_expansion": "7.1 \u00b5m/(m\u00b7K) (at r.t.)",
        "triple_point": NaN,
        "van_der_waals_radius": NaN,
        "vickers_hardness": NaN,
        "when_liquid_at_bp": NaN,
        "when_liquid_at_mp": NaN,
        "youngs_modulus": NaN
    }
}