{
    "astatine_At": {
        "allotropes": NaN,
        "alternative_name": NaN,
        "alternative_names": NaN,
        "appearance": "unknown, probably metallic",
        "at_t_(k)": 361.0,
        "atomic_number": 85,
        "atomic_radius": NaN,
        "atomic_weight": "(210)",
        "band_gap": NaN,
        "boiling_point": "610 K (337 \u00b0C, 639 \u00b0F)",
        "brinell_hardness": NaN,
        "bulk_modulus": NaN,
        "cas_number": "7440-68-8",
        "color": NaN,
        "covalent_radius": "150 pm",
        "critical_point": NaN,
        "crystal_structure": "face-centered cubic (fcc), (predicted)",
        "curie_point": NaN,
        "density_at_stp": NaN,
        "density_near_rt": "(At2) 6.35\u00b10.15 g/cm3 (predicted)",
        "density_when_liquid_at_mp": NaN,
        "discovery": "Dale R. Corson, Kenneth Ross MacKenzie, Emilio Segr\u00e8 (1940)",
        "discovery_and_first_isolation": NaN,
        "electrical_resistivity": NaN,
        "electron_configuration": "[Xe] 4f14 5d10 6s2 6p5",
        "electronegativity": "Pauling scale: 2.2",
        "element_category": "metalloid, sometimes classified as a nonmetal, or a metal",
        "first_isolation": NaN,
        "group_block": "group 17 (halogens), p-block",
        "heat_of_fusion": NaN,
        "heat_of_vaporisation": NaN,
        "heat_of_vaporization": "(At2) 54.39 kJ/mol",
        "ionisation_energies": NaN,
        "ionization_energies": "1st: 899.003 kJ/mol",
        "iso": "iso, NA, half-life, DM, DE (MeV), DP, 209At, syn, 5.41 h, ?+, 3.486, 209Po, ?, 5.758, 205Bi, 210At, syn, 8.1 h, ?+, 3.981, 210Po, ?, 5.632, 206Bi, 211At, syn, 7.21 h, ?, 0.786, 211Po, ?, 5.983, 207Bi",
        "magnetic_ordering": NaN,
        "melting_point": "575 K (302 \u00b0C, 576 \u00b0F)",
        "mohs_hardness": NaN,
        "molar_heat_capacity": NaN,
        "molar_volume": "(At2) 32.94 cm3/mol (predicted)",
        "name": "Astatine",
        "named_by": NaN,
        "naming": "after Greek astatos (???????), meaning \"unstable\"",
        "oxidation_states": "?1, +1, +3, +5, +7",
        "p_(pa)": "vapor pressure, P (Pa), 1, 10, 100, 1 k, 10 k, 100 k, at T (K), 361, 392, 429, 475, 531, 607",
        "per_shell": "2, 8, 18, 32, 18, 7",
        "period": 6,
        "phase": "solid",
        "poisson_ratio": NaN,
        "prediction": NaN,
        "pronunciation": "/?\u00e6st?ti?n/ or /?\u00e6st?t?n/, AS-t?-teen or AS-t?-tin",
        "proposed_formal_name": NaN,
        "recognised_as_an_element_by": NaN,
        "recognized_as_a_distinct_element_by": NaN,
        "recognized_as_a_unique_metal_by": NaN,
        "recognized_as_an_element_by": NaN,
        "shear_modulus": NaN,
        "speed_of_sound": NaN,
        "speed_of_sound_thin_rod": NaN,
        "sublimation_point": NaN,
        "symbol": "At",
        "tensile_strength": NaN,
        "thermal_conductivity": "1.7 W/(m\u00b7K)",
        "thermal_diffusivity": NaN,
        "thermal_expansion": NaN,
        "triple_point": NaN,
        "van_der_waals_radius": "202 pm",
        "vickers_hardness": NaN,
        "when_liquid_at_bp": NaN,
        "when_liquid_at_mp": NaN,
        "youngs_modulus": NaN
    }
}