var element_data = {
    "wiki": "https://en.wikipedia.org/wiki/Astatine",
    "video": "https://www.youtube.com/watch?v=GP8jJgzEmwE&list=PL7A1F4CF36C085DE1&index=85",
    "image": "Astatine/astatine.jpg",
    "species": "noble gas",
    "symbol": "At",
    "latin_name": "Astatum",
    "english_name": "Astatine",
    "year_discovered": "1940",
    "discovered_by": "Paul Emile Lecoq de Boisbaudran",
    "Electron_shell": [
        {
            "K": 2
        },
        {
            "L": 8
        },
        {
            "M": 18
        },
        {
            "N": 32
        },
        {
            "O": 18
        },
        {
            "P": 7
        },
        {
            "Q": 0
        },
        {
            "R": 0
        }
    ],
    "epn_no": [
        {
            "electrons": 85,
        },
        {
            "protons": 85,
        },
        {
            "neutrons": 125
        }
    ],
    "atomic_number": 85,
    "atomic_weight": "209.9871 (g/mol)",
    "density": "6.4 (g/cm³)",
    "melting_point": "230 °C = 446.00 °F = 503.15 K",
    "boiling_point": "336.8 °C = 638.24 °F = 609.95 K",
    "valence_electrons": "----",
    "period": 6,
    "group": "VII A",
    "block": "p-block",
    "emission_spectrum": "----",
    "phase": "Solid",
    "phase_icon": "----",
    "fusion_heat": "6 (kJ &middot K)",
    "specific_heat": "---- J/(kg &middot; K)",
    "thermal_expansion": "----(°C<sup>-1</sup>)",
    "vaporization_heat": "40 kJ &middot; mol",
    "electron_configuration": "[Kr] 3d<sup>10</sup>4s<sup>2</sup>4p<sup>3</sup>",
    "oxidation_state": "-1, +1, +3, +5, +7",
    "ion_charge": "At<sup>-</sup>",
    "ionization_potential": "---- ev",
    "atomic_radius": "145 (pm)",
    "covalent_radius": "---- (pm)",
    "van_der_waals_radius": "202 (pm)",
    "electrical_conductivity": "----",
    "electrical_type": "----", 
    "magnetic_type": "----",
    "volume_susceptibility": "----",
    "mass_susceptibility": "----",
    "molar_susceptibility": "---- m<sup>3</sup>/mol",
    "resistivity": "---- m\u03A9",
    "superconducting_point": "----",
    "lattice_structure": "Astatine/Face-centered_cubic.png",
    "crystal_structure": "Face-centered cubic",
    "grid": "---- ",
    "attitude": "----",
    "debye_temperature": "-78.15 °C = -108.67 °F = 195 K",
    "space_group_name": "----",
    "space_group_number": "----",
    "CAS_number": "CAS7440-68-8",
    "CID_number": "----",
    "RTEC_number": "----",
    "brinell_hardness": "----",
    "mohs_hardness": "----",
    "vickers_hardness": "----",
    "bulk_modulus": "----",
    "Young_modulus": "----",
    "liquid_density": "----",
    "molar_volume": "----",
    "poisson_ratio": "----",
    "shear_modulus": "---- GPa",
    "sound_speed": "---- m/s",
    "refractive_index": "-----",
    "thermal_conductivity": "2 W/mK",
    "electronegative": "Pauling Scale 2.2",
    "electron_affinity": "270.1 KJ/mol",
    "radioactivity": "yes",
    "half_life": "8.5 Hours",
    "life_time": "11.6",
    "barn": "0.034 b",
    "hazard_block": [
        {
            "red": "-"
        },
        {
            "yellow": "-"
        },
        {
            "blue": "-"
        },
        {
            "white": "-"
        }
    ],
    "fire_hazard": "----",
    "health_hazard":"----",
    "reactivity": "----",
    "specific": "----",
    "universe_contains": "---- %",
    "sun_contains": "---- %",
    "oceans_contains": "---- %",
    "human_body_contains": "---- %",
    "earth_crust_contains": "---- %",
    "meteorites_contains": "---- %",
    "start_isotope_number": NaN,
    "stop_isotope_number": NaN,
    "half_life_number": ["-"],
    "iso_weight": ["-"]
}