{
    "neptunium_Np": {
        "allotropes": NaN,
        "alternative_name": NaN,
        "alternative_names": NaN,
        "appearance": "silvery metallic",
        "at_t_(k)": 2194.0,
        "atomic_number": 93,
        "atomic_radius": "empirical: 155 pm",
        "atomic_weight": "(237)",
        "band_gap": NaN,
        "boiling_point": "4447 K (4174 \u00b0C, 7545 \u00b0F) (extrapolated)",
        "brinell_hardness": NaN,
        "bulk_modulus": NaN,
        "cas_number": "7439-99-8",
        "color": NaN,
        "covalent_radius": "190\u00b11 pm",
        "critical_point": NaN,
        "crystal_structure": "orthorhombic",
        "curie_point": NaN,
        "density_at_stp": NaN,
        "density_near_rt": "alpha: 20.45 g/cm3, accepted standard value: 19.38 g/cm3",
        "density_when_liquid_at_mp": NaN,
        "discovery": "Edwin McMillan and Philip H. Abelson (1940)",
        "discovery_and_first_isolation": NaN,
        "electrical_resistivity": "1.220 \u00b5?\u00b7m (at 22 \u00b0C)",
        "electron_configuration": "[Rn] 5f4 6d1 7s2",
        "electronegativity": "Pauling scale: 1.36",
        "element_category": "actinide",
        "first_isolation": NaN,
        "group_block": "group n/a, f-block",
        "heat_of_fusion": "5.19 kJ/mol",
        "heat_of_vaporisation": NaN,
        "heat_of_vaporization": "336 kJ/mol",
        "ionisation_energies": NaN,
        "ionization_energies": "1st: 604.5 kJ/mol",
        "iso": "iso, NA, half-life, DM, DE (MeV), DP, 235Np, syn, 396.1 d, ?, 5.192, 231Pa, ?, 0.124, 235U, 236Np, syn, 1.54\u00d7105 y, ?, 0.940, 236U, ??, 0.940, 236Pu, ?, 5.020, 232Pa, 237Np, trace, 2.144\u00d7106 y, ?, 4.959, 233Pa, 239Np, trace, 2.356 d, ??, 0.218, 239Pu",
        "magnetic_ordering": "paramagnetic",
        "melting_point": "912\u00b13 K (639\u00b13 \u00b0C, 1182\u00b15 \u00b0F)",
        "mohs_hardness": NaN,
        "molar_heat_capacity": "29.46 J/(mol\u00b7K)",
        "molar_volume": NaN,
        "name": "Neptunium",
        "named_by": NaN,
        "naming": "after planet Neptune, itself named after Roman god of the sea Neptune",
        "oxidation_states": "7, 6, 5, 4, 3, 2 (an amphoteric oxide)",
        "p_(pa)": "vapor pressure, P (Pa), 1, 10, 100, 1 k, 10 k, 100 k, at T (K), 2194, 2437",
        "per_shell": "2, 8, 18, 32, 22, 9, 2",
        "period": 7,
        "phase": "solid",
        "poisson_ratio": NaN,
        "prediction": NaN,
        "pronunciation": "UK /n?p?tju?ni?m/, US /n?p?tu?ni?m/\nnep-TEW-nee-?m, nep-TOO-nee-?m",
        "proposed_formal_name": NaN,
        "recognised_as_an_element_by": NaN,
        "recognized_as_a_distinct_element_by": NaN,
        "recognized_as_a_unique_metal_by": NaN,
        "recognized_as_an_element_by": NaN,
        "shear_modulus": NaN,
        "speed_of_sound": NaN,
        "speed_of_sound_thin_rod": NaN,
        "sublimation_point": NaN,
        "symbol": "Np",
        "tensile_strength": NaN,
        "thermal_conductivity": "6.3 W/(m\u00b7K)",
        "thermal_diffusivity": NaN,
        "thermal_expansion": NaN,
        "triple_point": NaN,
        "van_der_waals_radius": NaN,
        "vickers_hardness": NaN,
        "when_liquid_at_bp": NaN,
        "when_liquid_at_mp": NaN,
        "youngs_modulus": NaN
    }
}