{
    "roentgenium_Rg": {
        "allotropes": NaN,
        "alternative_name": NaN,
        "alternative_names": NaN,
        "appearance": "silvery (predicted)",
        "at_t_(k)": NaN,
        "atomic_number": 111,
        "atomic_radius": "empirical: 138 pm (predicted)",
        "atomic_weight": "[282]",
        "band_gap": NaN,
        "boiling_point": NaN,
        "brinell_hardness": NaN,
        "bulk_modulus": NaN,
        "cas_number": "54386-24-2",
        "color": NaN,
        "covalent_radius": "121 pm (estimated)",
        "critical_point": NaN,
        "crystal_structure": "body-centered cubic (bcc), (predicted)",
        "curie_point": NaN,
        "density_at_stp": NaN,
        "density_near_rt": "28.7 g/cm3 (predicted)",
        "density_when_liquid_at_mp": NaN,
        "discovery": "Gesellschaft f\u00fcr Schwerionenforschung (1994)",
        "discovery_and_first_isolation": NaN,
        "electrical_resistivity": NaN,
        "electron_configuration": "[Rn] 5f14 6d9 7s2 (predicted)",
        "electronegativity": NaN,
        "element_category": "unknown, but probably a transition metal",
        "first_isolation": NaN,
        "group_block": "group 11, d-block",
        "heat_of_fusion": NaN,
        "heat_of_vaporisation": NaN,
        "heat_of_vaporization": NaN,
        "ionisation_energies": NaN,
        "ionization_energies": "1st: 1022.7 kJ/mol, 2nd: 2074.4 kJ/mol, 3rd: 3077.9 kJ/mol, (more) (all estimated)",
        "iso": "iso, NA, half-life, DM, DE (MeV), DP, 282Rg, syn, 2.1+1.4, ?0.6 min, ?, 9.00, 278Mt, 281Rg, syn, 17+6, ?3 s, SF (90%), ? (10%), 277Mt, 280Rg, syn, 3.6 s, ?, 9.75, 276Mt, 279Rg, syn, 0.17 s, ?, 10.37, 275Mt",
        "magnetic_ordering": NaN,
        "melting_point": NaN,
        "mohs_hardness": NaN,
        "molar_heat_capacity": NaN,
        "molar_volume": NaN,
        "name": "Roentgenium",
        "named_by": NaN,
        "naming": "after Wilhelm R\u00f6ntgen",
        "oxidation_states": "5, 3, 1, ?1 (predicted)",
        "p_(pa)": NaN,
        "per_shell": "2, 8, 18, 32, 32, 17, 2 (predicted)",
        "period": 7,
        "phase": "solid (predicted)",
        "poisson_ratio": NaN,
        "prediction": NaN,
        "pronunciation": "i/r?nt???ni?m/ or /r?nt???ni?m/, runt-GEN-ee-?m or rent-GEN-ee-?m",
        "proposed_formal_name": NaN,
        "recognised_as_an_element_by": NaN,
        "recognized_as_a_distinct_element_by": NaN,
        "recognized_as_a_unique_metal_by": NaN,
        "recognized_as_an_element_by": NaN,
        "shear_modulus": NaN,
        "speed_of_sound": NaN,
        "speed_of_sound_thin_rod": NaN,
        "sublimation_point": NaN,
        "symbol": "Rg",
        "tensile_strength": NaN,
        "thermal_conductivity": NaN,
        "thermal_diffusivity": NaN,
        "thermal_expansion": NaN,
        "triple_point": NaN,
        "van_der_waals_radius": NaN,
        "vickers_hardness": NaN,
        "when_liquid_at_bp": NaN,
        "when_liquid_at_mp": NaN,
        "youngs_modulus": NaN
    }
}