{
    "flerovium_Fl": {
        "allotropes": NaN,
        "alternative_name": NaN,
        "alternative_names": NaN,
        "appearance": NaN,
        "at_t_(k)": NaN,
        "atomic_number": 114,
        "atomic_radius": "empirical: 180 pm (predicted)",
        "atomic_weight": "[289]",
        "band_gap": NaN,
        "boiling_point": "420 K (147 \u00b0C, 297 \u00b0F) (predicted)",
        "brinell_hardness": NaN,
        "bulk_modulus": NaN,
        "cas_number": "54085-16-4",
        "color": NaN,
        "covalent_radius": "171\u2013177 pm (extrapolated)",
        "critical_point": NaN,
        "crystal_structure": NaN,
        "curie_point": NaN,
        "density_at_stp": NaN,
        "density_near_rt": "14 g/cm3 (predicted)",
        "density_when_liquid_at_mp": NaN,
        "discovery": "Joint Institute for Nuclear Research (JINR) and Lawrence Livermore National Laboratory (LLNL) (1999)",
        "discovery_and_first_isolation": NaN,
        "electrical_resistivity": NaN,
        "electron_configuration": "[Rn] 5f14 6d10 7s2 7p2 (predicted)",
        "electronegativity": NaN,
        "element_category": "post-transition metal",
        "first_isolation": NaN,
        "group_block": "group 14 (carbon group), p-block",
        "heat_of_fusion": NaN,
        "heat_of_vaporisation": NaN,
        "heat_of_vaporization": "38 kJ/mol (predicted)",
        "ionisation_energies": NaN,
        "ionization_energies": "1st: 823.9 kJ/mol (predicted), 2nd: 1601.6 kJ/mol (predicted), 3rd: 3367.3 kJ/mol (predicted), (more)",
        "iso": "iso, NA, half-life, DM, DE (MeV), DP, 289Fl, syn, 2.6 s, ?, 9.82,9.48, 285Cn, 289mFl ?, syn, 2\u201323 s, ?, 9.71, 285mCn ?, 288Fl, syn, 0.8 s, ?, 9.94, 284Cn, 287Fl, syn, 0.48 s, ?, 10.02, 283Cn, 287mFl ?, syn, 5.5 s, ?, 10.29, 283mCn ?, 286Fl, syn, 0.13 s, 40% ?, 10.19, 282Cn, 60% SF, 285Fl, syn, 125 ms, ?, 10.41(5), 281Cn, 284Fl, syn, 2.5+1.8, ?0.8 ms, SF",
        "magnetic_ordering": NaN,
        "melting_point": "340 K (67 \u00b0C, 160 \u00b0F) (predicted)",
        "mohs_hardness": NaN,
        "molar_heat_capacity": NaN,
        "molar_volume": NaN,
        "name": "Ununquadium",
        "named_by": NaN,
        "naming": "after Flerov Laboratory of Nuclear Reactions (itself named after Georgy Flyorov)",
        "oxidation_states": "0, 1, 2, 4, 6 (predicted)",
        "p_(pa)": NaN,
        "per_shell": "2, 8, 18, 32, 32, 18, 4 (predicted)",
        "period": 7,
        "phase": "solid (predicted)",
        "poisson_ratio": NaN,
        "prediction": NaN,
        "pronunciation": "/fl??ro?vi?m/, fli-ROH-vee-?m",
        "proposed_formal_name": NaN,
        "recognised_as_an_element_by": NaN,
        "recognized_as_a_distinct_element_by": NaN,
        "recognized_as_a_unique_metal_by": NaN,
        "recognized_as_an_element_by": NaN,
        "shear_modulus": NaN,
        "speed_of_sound": NaN,
        "speed_of_sound_thin_rod": NaN,
        "sublimation_point": NaN,
        "symbol": "Uuq",
        "tensile_strength": NaN,
        "thermal_conductivity": NaN,
        "thermal_diffusivity": NaN,
        "thermal_expansion": NaN,
        "triple_point": NaN,
        "van_der_waals_radius": NaN,
        "vickers_hardness": NaN,
        "when_liquid_at_bp": NaN,
        "when_liquid_at_mp": NaN,
        "youngs_modulus": NaN
    }
}