{
    "iridium_Ir": {
        "allotropes": NaN,
        "alternative_name": NaN,
        "alternative_names": NaN,
        "appearance": "silvery white",
        "at_t_(k)": 2713.0,
        "atomic_number": 77,
        "atomic_radius": "empirical: 136 pm",
        "atomic_weight": "192.217(3)",
        "band_gap": NaN,
        "boiling_point": "4403 K (4130 \u00b0C, 7466 \u00b0F)",
        "brinell_hardness": "1670 MPa",
        "bulk_modulus": "320 GPa",
        "cas_number": "7439-88-5",
        "color": NaN,
        "covalent_radius": "141\u00b16 pm",
        "critical_point": NaN,
        "crystal_structure": "face-centered cubic (fcc)",
        "curie_point": NaN,
        "density_at_stp": NaN,
        "density_near_rt": "22.56 g/cm3",
        "density_when_liquid_at_mp": NaN,
        "discovery": NaN,
        "discovery_and_first_isolation": "Smithson Tennant (1803)",
        "electrical_resistivity": "47.1 n?\u00b7m (at 20 \u00b0C)",
        "electron_configuration": "[Xe] 4f14 5d7 6s2",
        "electronegativity": "Pauling scale: 2.20",
        "element_category": "transition metal",
        "first_isolation": NaN,
        "group_block": "group 9, d-block",
        "heat_of_fusion": "41.12 kJ/mol",
        "heat_of_vaporisation": NaN,
        "heat_of_vaporization": "564 kJ/mol",
        "ionisation_energies": NaN,
        "ionization_energies": "1st: 880 kJ/mol, 2nd: 1600 kJ/mol",
        "iso": "iso, NA, half-life, DM, DE (MeV), DP, 188Ir, syn, 1.73 d, ?, 1.64, 188Os, 189Ir, syn, 13.2 d, ?, 0.532, 189Os, 190Ir, syn, 11.8 d, ?, 2.000, 190Os, 191Ir, 37.3%, 191Ir is stable with 114 neutrons, 192Ir, syn, 73.827 d, ??, 1.460, 192Pt, ?, 1.046, 192Os, 192m2Ir, syn, 241 y, IT, 0.161, 192Ir, 193Ir, 62.7%, 193Ir is stable with 116 neutrons, 193mIr, syn, 10.5 d, IT, 0.080, 193Ir, 194Ir, syn, 19.3 h, ??, 2.247, 194Pt, 194m2Ir, syn, 171 d, IT, \u2013, 194Ir",
        "magnetic_ordering": "paramagnetic",
        "melting_point": "2719 K (2446 \u00b0C, 4435 \u00b0F)",
        "mohs_hardness": "6.5",
        "molar_heat_capacity": "25.10 J/(mol\u00b7K)",
        "molar_volume": NaN,
        "name": "Iridium",
        "named_by": NaN,
        "naming": NaN,
        "oxidation_states": "?3, ?1, 0, 1, 2, 3, 4, 5, 6, 7, 8, 9",
        "p_(pa)": "vapor pressure, P (Pa), 1, 10, 100, 1 k, 10 k, 100 k, at T (K), 2713, 2957, 3252, 3614, 4069, 4659",
        "per_shell": "2, 8, 18, 32, 15, 2",
        "period": 6,
        "phase": "solid",
        "poisson_ratio": "0.26",
        "prediction": NaN,
        "pronunciation": "/??r?di?m/, i-RID-ee-?m",
        "proposed_formal_name": NaN,
        "recognised_as_an_element_by": NaN,
        "recognized_as_a_distinct_element_by": NaN,
        "recognized_as_a_unique_metal_by": NaN,
        "recognized_as_an_element_by": NaN,
        "shear_modulus": "210 GPa",
        "speed_of_sound": NaN,
        "speed_of_sound_thin_rod": "4825 m/s (at 20 \u00b0C)",
        "sublimation_point": NaN,
        "symbol": "Ir",
        "tensile_strength": NaN,
        "thermal_conductivity": "147 W/(m\u00b7K)",
        "thermal_diffusivity": NaN,
        "thermal_expansion": "6.4 \u00b5m/(m\u00b7K)",
        "triple_point": NaN,
        "van_der_waals_radius": NaN,
        "vickers_hardness": "1760\u20132200 MPa",
        "when_liquid_at_bp": NaN,
        "when_liquid_at_mp": "19 g/cm3",
        "youngs_modulus": "528 GPa"
    }
}