var element_data = {
    "wiki": "https://en.wikipedia.org/wiki/Iridium",
    "video": "https://www.youtube.com/watch?v=cuovE4OQi2g&list=PL7A1F4CF36C085DE1&index=77",
    "image": "Iridium/iridium.jpg",
    "species": "TRANSITION METALS",
    "symbol": "Ir",
    "latin_name": "Iridium",
    "english_name": "Iridium",
    "year_discovered": "1804",
    "discovered_by": "Smithson Tennant",
    "Electron_shell": [
        {
            "K": 2
        },
        {
            "L": 8
        },
        {
            "M": 18
        },
        {
            "N": 32
        },
        {
            "O": 15
        },
        {
            "P": 2
        },
        {
            "Q": 0
        },
        {
            "R": 0
        }
    ],
    "epn_no": [
        {
            "electrons": 77,
        },
        {
            "protons": 77,
        },
        {
            "neutrons": 115
        }
    ],
    "atomic_number": 77,
    "atomic_weight": "192.217 (g/mol)",
    "density": "22.562  (g/cm³)",
    "melting_point": "2410 °C = 4370.00 °F = 2683.15 K",
    "boiling_point": "4130 °C = 7466.00 °F = 4403.15 K",
    "valence_electrons": "6",
    "period": 6,
    "group": "VIII B",
    "block": "d-block",
    "emission_spectrum": "Iridium/Ir.gif",
    "phase": "Solid",
    "phase_icon": "----",
    "fusion_heat": "26 (kJ &middot K)",
    "specific_heat": "131 J/(kg &middot; K)",
    "thermal_expansion": "6.4 &middot; 10<sup>-6</sup>°C<sup>-1</sup>)",
    "vaporization_heat": "560 kJ &middot; mol",
    "electron_configuration": "[Xe] 6s<sup>2</sup>4f<sup>14</sup>5d<sup>7</sup>",
    "oxidation_state": "-3, -1, +1, +2, +3, +4, +5, +6, +7, +8, +9",
    "ion_charge": "Ir<sup>4+</sup>",
    "ionization_potential": "---- eV",
    "atomic_radius": "136  (pm)",
    "covalent_radius": "137 (pm)",
    "van_der_waals_radius": "---- (pm)",
    "electrical_conductivity": "2.1 &middot; 10<sup>7</sup>",
    "electrical_type": "Conductor", 
    "magnetic_type": "Paramagnetic",
    "volume_susceptibility": "0.0000521",
    "mass_susceptibility": "0.0000000023",
    "molar_susceptibility": "3.21 &middot; 10<sup>-10</sup> m<sup>3</sup>/mol",
    "resistivity": "4.7 &middot; 10<sup>-8</sup> m\u03A9",
    "superconducting_point": "-273.04 °C = -459.47 °F = 0.11 K",
    "lattice_structure": "Iridium/Cubic-face-centered.svg.png",
    "crystal_structure": "Face-centered cubic",
    "grid": "a=3.840 \u212B",
    "attitude": "----",
    "debye_temperature": "156.85 °C = 314.33 °F = 430 K",
    "space_group_name": "Fm_3m",
    "space_group_number": "225",
    "CAS_number": "CAS7439-88-5",
    "CID_number": "CID23924",
    "RTEC_number": "----",
    "brinell_hardness": "1670 MPa",
    "mohs_hardness": "6.5",
    "vickers_hardness": "1760-2200",
    "bulk_modulus": "320 GPa",
    "Young_modulus": "528 GPa",
    "liquid_density": "19 (g/cm<sup>3</sup>)",
    "molar_volume": "8.54 (cm<sup>3</sup>/mol)",
    "poisson_ratio": "0.26 &micro;",
    "shear_modulus": "210 GPa",
    "sound_speed": "4825 m/s",
    "refractive_index": "----",
    "thermal_conductivity": "150 W/mK",
    "electronegative": "Pauling Scale 2.2",
    "electron_affinity": "151 KJ/mol",
    "radioactivity": "no",
    "half_life": "\u221E",
    "life_time": "\u221E",
    "barn": "425 b",
    "hazard_block": [
        {
            "red": "-"
        },
        {
            "yellow": "-"
        },
        {
            "blue": "-"
        },
        {
            "white": "-"
        }
    ],
    "fire_hazard": "----",
    "health_hazard":"----",
    "reactivity": "----",
    "specific": "----",
    "universe_contains": "---- %",
    "sun_contains": "2 &middot; 10<sup>-7</sup> %",
    "oceans_contains": "---- %",
    "human_body_contains": "---- %",
    "earth_crust_contains": "4 &middot; 10<sup>-8</sup> %",
    "meteorites_contains": "0.000054 %",
    "start_isotope_number": 164,
    "stop_isotope_number": 168,
    "half_life_number": ["1 ms", "1 &micro;", "10.5 ms", "35.2 ms", "161 ms"],
    "iso_weight": [163.99220, 164.98752, 165.98166, 166.98166, 167.97629]
}