{
    "antimony_Sb": {
        "allotropes": NaN,
        "alternative_name": NaN,
        "alternative_names": NaN,
        "appearance": "silvery lustrous gray",
        "at_t_(k)": 807.0,
        "atomic_number": 51,
        "atomic_radius": "empirical: 140 pm",
        "atomic_weight": "121.760(1)",
        "band_gap": NaN,
        "boiling_point": "1908 K (1635 \u00b0C, 2975 \u00b0F)",
        "brinell_hardness": "294\u2013384 MPa",
        "bulk_modulus": "42 GPa",
        "cas_number": "7440-36-0",
        "color": NaN,
        "covalent_radius": "139\u00b15 pm",
        "critical_point": NaN,
        "crystal_structure": "rhombohedral",
        "curie_point": NaN,
        "density_at_stp": NaN,
        "density_near_rt": "6.697 g/cm3",
        "density_when_liquid_at_mp": NaN,
        "discovery": "3000 BC",
        "discovery_and_first_isolation": NaN,
        "electrical_resistivity": "417 n?\u00b7m (at 20 \u00b0C)",
        "electron_configuration": "[Kr] 4d10 5s2 5p3",
        "electronegativity": "Pauling scale: 2.05",
        "element_category": "metalloid",
        "first_isolation": "Vannoccio Biringuccio (1540)",
        "group_block": "group 15 (pnictogens), p-block",
        "heat_of_fusion": "19.79 kJ/mol",
        "heat_of_vaporisation": NaN,
        "heat_of_vaporization": "193.43 kJ/mol",
        "ionisation_energies": NaN,
        "ionization_energies": "1st: 834 kJ/mol, 2nd: 1594.9 kJ/mol, 3rd: 2440 kJ/mol, (more)",
        "iso": "iso, NA, half-life, DM, DE (MeV), DP, 121Sb, 57.21%, 121Sb is stable with 70 neutrons, 123Sb, 42.79%, 123Sb is stable with 72 neutrons, 125Sb, syn, 2.7582 y, ??, 0.767, 125Te",
        "magnetic_ordering": "diamagnetic",
        "melting_point": "903.78 K (630.63 \u00b0C, 1167.13 \u00b0F)",
        "mohs_hardness": "3",
        "molar_heat_capacity": "25.23 J/(mol\u00b7K)",
        "molar_volume": NaN,
        "name": "Antimony",
        "named_by": NaN,
        "naming": NaN,
        "oxidation_states": "5, 4, 3, 2, 1, ?1, ?2, ?3 (an amphoteric oxide)",
        "p_(pa)": "vapor pressure, P (Pa), 1, 10, 100, 1 k, 10 k, 100 k, at T (K), 807, 876, 1011, 1219, 1491, 1858",
        "per_shell": "2, 8, 18, 18, 5",
        "period": 5,
        "phase": "solid",
        "poisson_ratio": NaN,
        "prediction": NaN,
        "pronunciation": "UK /?\u00e6nt?m?ni/, AN-ti-m?-nee\nUS /?\u00e6nt?mo?ni/, AN-ti-moh-nee",
        "proposed_formal_name": NaN,
        "recognised_as_an_element_by": NaN,
        "recognized_as_a_distinct_element_by": NaN,
        "recognized_as_a_unique_metal_by": NaN,
        "recognized_as_an_element_by": NaN,
        "shear_modulus": "20 GPa",
        "speed_of_sound": NaN,
        "speed_of_sound_thin_rod": "3420 m/s (at 20 \u00b0C)",
        "sublimation_point": NaN,
        "symbol": "Sb",
        "tensile_strength": NaN,
        "thermal_conductivity": "24.4 W/(m\u00b7K)",
        "thermal_diffusivity": NaN,
        "thermal_expansion": "11 \u00b5m/(m\u00b7K) (at 25 \u00b0C)",
        "triple_point": NaN,
        "van_der_waals_radius": "206 pm",
        "vickers_hardness": NaN,
        "when_liquid_at_bp": NaN,
        "when_liquid_at_mp": "6.53 g/cm3",
        "youngs_modulus": "55 GPa"
    }
}