var element_data = {
    "wiki": "https://en.wikipedia.org/wiki/Promethium",
    "video": "https://www.youtube.com/watch?v=HplP_MY78NQ&list=PL7A1F4CF36C085DE1&index=61",
    "image": "Promethium/promethium.jpg",
    "species": "LANTHANOIDS",
    "symbol": "Pm",
    "latin_name": "Promethium",
    "english_name": "Promethium",
    "year_discovered": "1945",
    "discovered_by": "----",
    "Electron_shell": [
        {
            "K": 2
        },
        {
            "L": 8
        },
        {
            "M": 18
        },
        {
            "N": 23
        },
        {
            "O": 8
        },
        {
            "P": 2
        },
        {
            "Q": 0
        },
        {
            "R": 0
        }
    ],
    "epn_no": [
        {
            "electrons": 61,
        },
        {
            "protons": 61,
        },
        {
            "neutrons": 84
        }
    ],
    "atomic_number": 61,
    "atomic_weight": "144.912 (g/mol)",
    "density": "7.2 (g/cm³)",
    "melting_point": "1167 °C = 2132.60 °F = 1440.15 K",
    "boiling_point": "3000 °C = 5432.00 °F = 3273.15 K",
    "valence_electrons": 3,
    "period": 6,
    "group": "----",
    "block": "f-block",
    "emission_spectrum": "Promethium/Pm.gif",
    "phase": "Solid",
    "phase_icon": "----",
    "fusion_heat": "7.7 (kJ &middot K)",
    "specific_heat": "---- J/(kg &middot; K)",
    "thermal_expansion": "9.0 &middot; 10<sup>-6</sup>°C<sup>-1</sup>)",
    "vaporization_heat": "290 kJ &middot; mol",
    "electron_configuration": "[Xe] 6s<sup>2</sup> 4f<sup>5</sup>",
    "oxidation_state": "+2, +3",
    "ion_charge": "Pm<sup>3+</sup>",
    "ionization_potential": "---- eV",
    "atomic_radius": "183 (pm)",
    "covalent_radius": "---- (pm)",
    "van_der_waals_radius": "---- (pm)",
    "electrical_conductivity": "1.3 &middot; 10<sup>6</sup>",
    "electrical_type": "Conductor", 
    "magnetic_type": "----",
    "volume_susceptibility": "----",
    "mass_susceptibility": "----",
    "molar_susceptibility": "---- m<sup>3</sup>/mol",
    "resistivity": "7.4 &middot; 10<sup>-7</sup> m\u03A9",
    "superconducting_point": "----",
    "lattice_structure": "Promethium/Double-Hexagonal-Close-Packed.png",
    "crystal_structure": "Double hexagonal close-packed",
    "grid": "a=3.65 \u212B; c=11.65 \u212B",
    "attitude": "3.19",
    "debye_temperature": "----",
    "space_group_name": "----",
    "space_group_number": "----",
    "CAS_number": "CAS7440-12-2",
    "CID_number": "----",
    "RTEC_number": "----",
    "brinell_hardness": "---- MPa",
    "mohs_hardness": "----",
    "vickers_hardness": "----",
    "bulk_modulus": "33 GPa",
    "Young_modulus": "46 GPa",
    "liquid_density": "---- (g/cm<sup>3</sup>)",
    "molar_volume": "19.96 (cm<sup>3</sup>/mol)",
    "poisson_ratio": "0.28 &micro;",
    "shear_modulus": "---- GPa",
    "sound_speed": "18 m/s",
    "refractive_index": "----",
    "thermal_conductivity": "15 W/mK",
    "electronegative": "Pauling Scale ----",
    "electron_affinity": "50 KJ/mol",
    "radioactivity": "yes",
    "half_life": "18 years",
    "life_time": "25.5 years",
    "barn": "8000 b",
    "hazard_block": [
        {
            "red": "-"
        },
        {
            "yellow": "-"
        },
        {
            "blue": "-"
        },
        {
            "white": "-"
        }
    ],
    "fire_hazard": "----",
    "health_hazard":"----",
    "reactivity": "----",
    "specific": "----",
    "universe_contains": "---- %",
    "sun_contains": "---- %",
    "oceans_contains": "---- %",
    "human_body_contains": "---- %",
    "earth_crust_contains": "---- %",
    "meteorites_contains": "---- %",
    "start_isotope_number": 126,
    "stop_isotope_number": 133,
    "half_life_number": ["500 ms", "1 s", "1 s", "3 s", "2.6 s", "6.3 s", "6.2 s", "15 s"],
    "iso_weight": [125.95752, 126.95163, 127.94842, 128.94316, 129.94045, 130.93587, 131.93375, 132.92978]
}