{
    "promethium_Pm": {
        "allotropes": NaN,
        "alternative_name": NaN,
        "alternative_names": NaN,
        "appearance": "metallic",
        "at_t_(k)": NaN,
        "atomic_number": 61,
        "atomic_radius": "empirical: 183 pm",
        "atomic_weight": "[145]",
        "band_gap": NaN,
        "boiling_point": "3273 K (3000 \u00b0C, 5432 \u00b0F)",
        "brinell_hardness": NaN,
        "bulk_modulus": "? form: est. 33 GPa",
        "cas_number": "7440-12-2",
        "color": NaN,
        "covalent_radius": "199 pm",
        "critical_point": NaN,
        "crystal_structure": "double hexagonal close-packed (dhcp)",
        "curie_point": NaN,
        "density_at_stp": NaN,
        "density_near_rt": "7.26 g/cm3",
        "density_when_liquid_at_mp": NaN,
        "discovery": "Chien Shiung Wu, Emilio Segr\u00e8, Hans Bethe (1942)",
        "discovery_and_first_isolation": NaN,
        "electrical_resistivity": "est. 0.75 \u00b5?\u00b7m (at r.t.)",
        "electron_configuration": "[Xe] 4f5 6s2",
        "electronegativity": "Pauling scale: 1.13 (?)",
        "element_category": "lanthanide",
        "first_isolation": "Charles D. Coryell, Jacob A. Marinsky, Lawrence E. Glendenin, Harold G. Richter (1945)",
        "group_block": "group n/a, f-block",
        "heat_of_fusion": "7.13 kJ/mol",
        "heat_of_vaporisation": NaN,
        "heat_of_vaporization": "289 kJ/mol",
        "ionisation_energies": NaN,
        "ionization_energies": "1st: 540 kJ/mol, 2nd: 1050 kJ/mol, 3rd: 2150 kJ/mol",
        "iso": "iso, NA, half-life, DM, DE (MeV), DP, 145Pm, syn, 17.7 y, ?, 0.163, 145Nd, 146Pm, syn, 5.53 y, ?, 1.472, 146Nd, ??, 1.542, 146Sm, 147Pm, trace, 2.6234 y, ??, 0.224, 147Sm",
        "magnetic_ordering": "paramagnetic",
        "melting_point": "1315 K (1042 \u00b0C, 1908 \u00b0F)",
        "mohs_hardness": NaN,
        "molar_heat_capacity": NaN,
        "molar_volume": NaN,
        "name": "Promethium",
        "named_by": "Grace Mary Coryell (1945)",
        "naming": NaN,
        "oxidation_states": "3, 2 (a mildly basic oxide)",
        "p_(pa)": NaN,
        "per_shell": "2, 8, 18, 23, 8, 2",
        "period": 6,
        "phase": "solid",
        "poisson_ratio": "? form: est. 0.28",
        "prediction": NaN,
        "pronunciation": "/pro??mi??i?m/, pro-MEE-thee-?m",
        "proposed_formal_name": NaN,
        "recognised_as_an_element_by": NaN,
        "recognized_as_a_distinct_element_by": NaN,
        "recognized_as_a_unique_metal_by": NaN,
        "recognized_as_an_element_by": NaN,
        "shear_modulus": "? form: est. 18 GPa",
        "speed_of_sound": NaN,
        "speed_of_sound_thin_rod": NaN,
        "sublimation_point": NaN,
        "symbol": "Pm",
        "tensile_strength": NaN,
        "thermal_conductivity": "17.9 W/(m\u00b7K)",
        "thermal_diffusivity": NaN,
        "thermal_expansion": "9.0 \u00b5m/(m\u00b7K) (at r.t.)",
        "triple_point": NaN,
        "van_der_waals_radius": NaN,
        "vickers_hardness": NaN,
        "when_liquid_at_bp": NaN,
        "when_liquid_at_mp": NaN,
        "youngs_modulus": "? form: est. 46 GPa"
    }
}