var element_data = {
    "wiki": "https://en.wikipedia.org/wiki/Dysprosium",
    "video": "https://www.youtube.com/watch?v=hFfR_qOSa-8&list=PL7A1F4CF36C085DE1&index=66",
    "image": "Dysprosium/dysprosium.jpg",
    "species": "ALKALINE EARTH METALS",
    "symbol": "Dy",
    "latin_name": "Dysprosium",
    "english_name": "Dysprosium",
    "year_discovered": "1886",
    "discovered_by": "Paul Emile Lecoq de Boisbaudran",
    "Electron_shell": [
        {
            "K": 2
        },
        {
            "L": 8
        },
        {
            "M": 18
        },
        {
            "N": 28
        },
        {
            "O": 8
        },
        {
            "P": 2
        },
        {
            "Q": 0
        },
        {
            "R": 0
        }
    ],
    "epn_no": [
        {
            "electrons": 66,
        },
        {
            "protons": 66,
        },
        {
            "neutrons": 96
        }
    ],
    "atomic_number": 66,
    "atomic_weight": "162.500 (g/mol)",
    "density": "8.56 (g/cm³)",
    "melting_point": "1409 °C = 2568.20 °F = 1682.15 K",
    "boiling_point": "2567 °C = 4652.60 °F = 2840.15 K",
    "valence_electrons": "3",
    "period": 6,
    "group": "----",
    "block": "f-block",
    "emission_spectrum": "Dysprosium/Dy.gif",
    "phase": "Solid",
    "phase_icon": "----",
    "fusion_heat": "11.1 (kJ &middot K)",
    "specific_heat": "167 J/(kg &middot; K)",
    "thermal_expansion": "9.9 &middot; 10<sup>-6</sup>°C<sup>-1</sup>)",
    "vaporization_heat": "280 kJ &middot; mol",
    "electron_configuration": "[Xe] 6s<sup>2</sup>4f<sup>10</sup>",
    "oxidation_state": "+2, +3, +4",
    "ion_charge": "Dy<sup>3+</sup>",
    "ionization_potential": "6.82 ev",
    "atomic_radius": "180 (pm)",
    "covalent_radius": "---- (pm)",
    "van_der_waals_radius": "---- (pm)",
    "electrical_conductivity": "1.1 &middot; 10<sup>6</sup>",
    "electrical_type": "Conductor", 
    "magnetic_type": "Paramagnetic",
    "volume_susceptibility": "0.046603",
    "mass_susceptibility": "0.00000545",
    "molar_susceptibility": "8.85625 &middot; 10<sup>-7</sup> m<sup>3</sup>/mol",
    "resistivity": "9.1 &middot; 10<sup>-7</sup> m\u03A9",
    "superconducting_point": "----",
    "lattice_structure": "Dysprosium/Hexagonal_close_packed.svg.png",
    "crystal_structure": "Hexagonal close-packed",
    "grid": "a=3.593 \u212B; c=5.654 \u212B",
    "attitude": "1.574",
    "debye_temperature": "----",
    "space_group_name": "----",
    "space_group_number": "194",
    "CAS_number": "CAS7429-91-6",
    "CID_number": "CID23912",
    "RTEC_number": "----",
    "brinell_hardness": "500-1050 MPa",
    "mohs_hardness": "----",
    "vickers_hardness": "410-550 MPa",
    "bulk_modulus": "40.5 GPa",
    "Young_modulus": "61.4 GPa",
    "liquid_density": "8.37 (g/cm<sup>3</sup>)",
    "molar_volume": "19 (cm<sup>3</sup>/mol)",
    "poisson_ratio": "0.25 &micro;",
    "shear_modulus": "25 GPa",
    "sound_speed": "2710 m/s",
    "refractive_index": "----",
    "thermal_conductivity": "11 W/mK",
    "electronegative": "Pauling Scale 1.22",
    "electron_affinity": "50 KJ/mol",
    "radioactivity": "no",
    "half_life": "\u221E",
    "life_time": "\u221E",
    "barn": "1010 b",
    "hazard_block": [
        {
            "red": "-"
        },
        {
            "yellow": "-"
        },
        {
            "blue": "-"
        },
        {
            "white": "-"
        }
    ],
    "fire_hazard": "----",
    "health_hazard":"----",
    "reactivity": "----",
    "specific": "----",
    "universe_contains": "---- %",
    "sun_contains": "2 &middot; 10<sup>-7</sup> %",
    "oceans_contains": "9.1 &middot; 10<sup>-11</sup> %",
    "human_body_contains": "---- %",
    "earth_crust_contains": "0.00062 %",
    "meteorites_contains": "0.000027 %",
    "start_isotope_number": 138,
    "stop_isotope_number": 143,
    "half_life_number": ["200 ms", "600 ms", "700 ms", "900 ms", "2.3 s", "5.6 s"],
    "iso_weight": [137.96249, 138.95954, 139.95401, 140.95135, 141.94637, 142.94383]
}