{
    "dysprosium_Dy": {
        "allotropes": NaN,
        "alternative_name": NaN,
        "alternative_names": NaN,
        "appearance": "silvery white",
        "at_t_(k)": 1378.0,
        "atomic_number": 66,
        "atomic_radius": "empirical: 178 pm",
        "atomic_weight": "162.500(1)",
        "band_gap": NaN,
        "boiling_point": "2840 K (2562 \u00b0C, 4653 \u00b0F)",
        "brinell_hardness": "500\u20131050 MPa",
        "bulk_modulus": "? form: 40.5 GPa",
        "cas_number": "7429-91-6",
        "color": NaN,
        "covalent_radius": "192\u00b17 pm",
        "critical_point": NaN,
        "crystal_structure": "hexagonal close-packed (hcp)",
        "curie_point": NaN,
        "density_at_stp": NaN,
        "density_near_rt": "8.540 g/cm3",
        "density_when_liquid_at_mp": NaN,
        "discovery": "Lecoq de Boisbaudran (1886)",
        "discovery_and_first_isolation": NaN,
        "electrical_resistivity": "?, poly: 926 n?\u00b7m (r.t.)",
        "electron_configuration": "[Xe] 4f10 6s2",
        "electronegativity": "Pauling scale: 1.22",
        "element_category": "lanthanide",
        "first_isolation": NaN,
        "group_block": "group n/a, f-block",
        "heat_of_fusion": "11.06 kJ/mol",
        "heat_of_vaporisation": NaN,
        "heat_of_vaporization": "280 kJ/mol",
        "ionisation_energies": NaN,
        "ionization_energies": "1st: 573.0 kJ/mol, 2nd: 1130 kJ/mol, 3rd: 2200 kJ/mol",
        "iso": "iso, NA, half-life, DM, DE (MeV), DP, 154Dy, syn, 3.0\u00d7106 y, ?, 2.947, 150Gd, 156Dy, 0.056%, 156Dy is stable with 90 neutrons, 158Dy, 0.095%, 158Dy is stable with 92 neutrons, 160Dy, 2.329%, 160Dy is stable with 94 neutrons, 161Dy, 18.889%, 161Dy is stable with 95 neutrons, 162Dy, 25.475%, 162Dy is stable with 96 neutrons, 163Dy, 24.896%, 163Dy is stable with 97 neutrons, 164Dy, 28.260%, 164Dy is stable with 98 neutrons",
        "magnetic_ordering": "paramagnetic at 300 K",
        "melting_point": "1680 K (1407 \u00b0C, 2565 \u00b0F)",
        "mohs_hardness": NaN,
        "molar_heat_capacity": "27.7 J/(mol\u00b7K)",
        "molar_volume": NaN,
        "name": "Dysprosium",
        "named_by": NaN,
        "naming": NaN,
        "oxidation_states": "4, 3, 2, 1 (a weakly basic oxide)",
        "p_(pa)": "vapor pressure, P (Pa), 1, 10, 100, 1 k, 10 k, 100 k, at T (K), 1378, 1523, (1704), (1954), (2304), (2831)",
        "per_shell": "2, 8, 18, 28, 8, 2",
        "period": 6,
        "phase": "solid",
        "poisson_ratio": "? form: 0.247",
        "prediction": NaN,
        "pronunciation": "/d?s?pro?zi?m/, dis-PROH-zee-?m",
        "proposed_formal_name": NaN,
        "recognised_as_an_element_by": NaN,
        "recognized_as_a_distinct_element_by": NaN,
        "recognized_as_a_unique_metal_by": NaN,
        "recognized_as_an_element_by": NaN,
        "shear_modulus": "? form: 24.7 GPa",
        "speed_of_sound": NaN,
        "speed_of_sound_thin_rod": "2710 m/s (at 20 \u00b0C)",
        "sublimation_point": NaN,
        "symbol": "Dy",
        "tensile_strength": NaN,
        "thermal_conductivity": "10.7 W/(m\u00b7K)",
        "thermal_diffusivity": NaN,
        "thermal_expansion": "?, poly: 9.9 \u00b5m/(m\u00b7K) (r.t.)",
        "triple_point": NaN,
        "van_der_waals_radius": NaN,
        "vickers_hardness": "410\u2013550 MPa",
        "when_liquid_at_bp": NaN,
        "when_liquid_at_mp": "8.37 g/cm3",
        "youngs_modulus": "? form: 61.4 GPa"
    }
}