{
    "ununseptium_Uus": {
        "allotropes": NaN,
        "alternative_name": NaN,
        "alternative_names": "element 117, eka-astatine",
        "appearance": "semimetallic (predicted)",
        "at_t_(k)": NaN,
        "atomic_number": 117,
        "atomic_radius": "empirical: 138 pm (predicted)",
        "atomic_weight": "[294]",
        "band_gap": NaN,
        "boiling_point": "883 K (610 \u00b0C, 1130 \u00b0F) (predicted)",
        "brinell_hardness": NaN,
        "bulk_modulus": NaN,
        "cas_number": "54101-14-3",
        "color": NaN,
        "covalent_radius": "156\u2013157 pm (extrapolated)",
        "critical_point": NaN,
        "crystal_structure": NaN,
        "curie_point": NaN,
        "density_at_stp": NaN,
        "density_near_rt": "7.1\u20137.3 g/cm3 (extrapolated)",
        "density_when_liquid_at_mp": NaN,
        "discovery": "Joint Institute for Nuclear Research and Lawrence Livermore National Laboratory (2010)",
        "discovery_and_first_isolation": NaN,
        "electrical_resistivity": NaN,
        "electron_configuration": "[Rn] 5f14 6d10 7s2 7p5 (predicted)",
        "electronegativity": NaN,
        "element_category": "unknown, but probably a post-transition metal",
        "first_isolation": NaN,
        "group_block": "group 17, p-block",
        "heat_of_fusion": NaN,
        "heat_of_vaporisation": NaN,
        "heat_of_vaporization": NaN,
        "ionisation_energies": NaN,
        "ionization_energies": "1st: 742.9 kJ/mol (predicted), 2nd: 1785.0\u20131920.1 kJ/mol (extrapolated)",
        "iso": "iso\nNA\nhalf-life\nDM\nDE (MeV)\nDP\n\n\n294Uus\nsyn\n51+41\n?16 ms\n?\n10.81\n290Uup\n\n\n293Uus\nsyn\n22+8\n?4 ms\n?\n11.11, 11.00, 10.91\n289Uup",
        "magnetic_ordering": NaN,
        "melting_point": "623\u2013823 K (350\u2013550 \u00b0C, 662\u20131022 \u00b0F) (predicted)",
        "mohs_hardness": NaN,
        "molar_heat_capacity": NaN,
        "molar_volume": NaN,
        "name": "Ununseptium",
        "named_by": NaN,
        "naming": "IUPAC systematic element name",
        "oxidation_states": "?1, +1, +3, +5 (predicted)",
        "p_(pa)": NaN,
        "per_shell": "2, 8, 18, 32, 32, 18, 7 (predicted)",
        "period": 7,
        "phase": "solid (predicted)",
        "poisson_ratio": NaN,
        "prediction": NaN,
        "pronunciation": "i/u?nu?n?s?pti?m/, oon-oon-SEP-tee-?m",
        "proposed_formal_name": "tennessine, Ts",
        "recognised_as_an_element_by": NaN,
        "recognized_as_a_distinct_element_by": NaN,
        "recognized_as_a_unique_metal_by": NaN,
        "recognized_as_an_element_by": NaN,
        "shear_modulus": NaN,
        "speed_of_sound": NaN,
        "speed_of_sound_thin_rod": NaN,
        "sublimation_point": NaN,
        "symbol": "Uus",
        "tensile_strength": NaN,
        "thermal_conductivity": NaN,
        "thermal_diffusivity": NaN,
        "thermal_expansion": NaN,
        "triple_point": NaN,
        "van_der_waals_radius": NaN,
        "vickers_hardness": NaN,
        "when_liquid_at_bp": NaN,
        "when_liquid_at_mp": NaN,
        "youngs_modulus": NaN
    }
}