var element_data = {
    "wiki": "https://en.wikipedia.org/wiki/Beryllium",
    "video": "https://www.youtube.com/watch?v=qy8JyQShZRA&list=PL7A1F4CF36C085DE1&index=4",
    "image": "Beryllium/beryllium.jpg",
    "species": "ALKALINE EARTH METALS",
    "symbol": "Ba",
    "latin_name": "Beryllium",
    "english_name": "Beryllium",
    "year_discovered": "1798",
    "discovered_by": "Louis-Nicolas Vauquelin",
    "Electron_shell": [
        {
            "K": 2
        },
        {
            "L": 2
        },
        {
            "M": 0
        },
        {
            "N": 0
        },
        {
            "O": 0
        },
        {
            "P": 0
        },
        {
            "Q": 0
        },
        {
            "R": 0
        }
    ],
    "epn_no": [
        {
            "electrons": 4,
        },
        {
            "protons": 4,
        },
        {
            "neutrons": 5
        }
    ],
    "atomic_number": 4,
    "atomic_weight": "9.0121 (g/mol)",
    "density": "1.848 (g/cm³)",
    "melting_point": "1278 °C = 2332.40 °F = 1551.15 K",
    "boiling_point": "2970 °C = 5378.00 °F = 3243.15 K",
    "valence_electrons": "2",
    "period": 2,
    "group": "II A",
    "block": "s-block",
    "emission_spectrum": "Beryllium/Be.gif",
    "phase": "Solid",
    "phase_icon": "----",
    "fusion_heat": "7.95 (kJ &middot K)",
    "specific_heat": "1820 J/(kg &middot; K)",
    "thermal_expansion": "11.3 &middot; 10<sup>-6</sup>°C<sup>-1</sup>)",
    "vaporization_heat": "297 kJ &middot; mol",
    "electron_configuration": "[He] 2s<sup>2</sup>",
    "oxidation_state": "+1, +2",
    "ion_charge": "Be<sup>2+</sup>",
    "ionization_potential": "9.50 ev",
    "atomic_radius": "112 (pm)",
    "covalent_radius": "90 (pm)",
    "van_der_waals_radius": "153 (pm)",
    "electrical_conductivity": "2.5 &middot; 10<sup>7</sup>",
    "electrical_type": "Conductor", 
    "magnetic_type": "Diamagnetic",
    "volume_susceptibility": "-0.00002328",
    "mass_susceptibility": "-0.0000000126",
    "molar_susceptibility": "-1.136 &middot; 10<sup>-10</sup> m<sup>3</sup>/mol",
    "resistivity": "4 &middot; 10<sup>-8</sup> m\u03A9",
    "superconducting_point": "-273.12 °C = -459.62 °F = 0.026 K",
    "lattice_structure": "Beryllium/Hexagonal_close_packed.svg.png",
    "crystal_structure": "Hexagonal close-packed",
    "grid": "a=2.286 \u212B; c=3.584 \u212B;",
    "attitude": "1.567",
    "debye_temperature": "726.85 °C = 1340.33 °F = 1000 K",
    "space_group_name": "R_3m",
    "space_group_number": "194",
    "CAS_number": "CAS7440-41-7",
    "CID_number": "CID5460467",
    "RTEC_number": "RTECSDS1750000",
    "brinell_hardness": "590-1320 MPa",
    "mohs_hardness": "5.5",
    "vickers_hardness": "1670 MPa",
    "bulk_modulus": "130 GPa",
    "Young_modulus": "287 GPa",
    "liquid_density": "---- (g/cm<sup>3</sup>)",
    "molar_volume": "5 (cm<sup>3</sup>/mol)",
    "poisson_ratio": "0.032 &micro:",
    "shear_modulus": "132 GPa",
    "sound_speed": "13000 m/s",
    "refractive_index": "----",
    "thermal_conductivity": "190 W/mK",
    "electronegative": "Pauling Scale 1.57",
    "electron_affinity": "0 KJ/mol",
    "radioactivity": "no",
    "half_life": "\u221E",
    "life_time": "\u221E",
    "barn": "4.3 b",
    "hazard_block": [
        {
            "red": "1"
        },
        {
            "yellow": "0"
        },
        {
            "blue": "3"
        },
        {
            "white": "-"
        }
    ],
    "fire_hazard": "Above 93.3 °C",
    "health_hazard":"Extreme danger",
    "reactivity": "Stable",
    "specific": "----",
    "universe_contains": "1 &middot; 10<sup>-7</sup> %",
    "sun_contains": "1 &middot; 10<sup>-8</sup> %",
    "oceans_contains": "6 &middot; 10<sup>-11</sup> %",
    "human_body_contains": "4 &middot; 10<sup>-8</sup> %",
    "earth_crust_contains": "0.00019 %",
    "meteorites_contains": "2.9 &middot; 10<sup>-6</sup> %",
    "start_isotope_number": 5,
    "stop_isotope_number": 15,
    "half_life_number": ["--", "5.0 &middot; <sup>-21</sup> s", "53.22 day", "6.7 &middot; <sup>-17</sup> s", "--", "1.51 &middot; <sup>6</sup> years", "13.81 s", "21.49 ms", "0.5 ns", "4.84 ms", "--", "--", ],
    "iso_weight": [5.04079, 6.019726, 7.01692, 8.00530, 9.01218, 10.013533, 11.021658, 12.026921, 13.03569, 14.04289, 15.05346, 16.0619726]
}