{
    "beryllium_Be": {
        "allotropes": NaN,
        "latin_name": Beryllium,
        english_name": Beryllium,
        "year_of_discovery": 1797,
        "discovered_by": Louis-Nicolas Vauquelin,
        "appearance": "white-gray metallic",
        "at_t_(k)": 1462.0,
        "atomic_number": 4,
        "atomic_radius": "empirical: 112 pm",
        "atomic_weight": "9.0121831(5)",
        "band_gap": NaN,
        "boiling_point": "2742 K (2469 \u00b0C, 4476 \u00b0F)",
        "brinell_hardness": "590\u20131320 MPa",
        "bulk_modulus": "130 GPa",
        "cas_number": "7440-41-7",
        "color": NaN,
        "covalent_radius": "96\u00b13 pm",
        "critical_point": "5205 K,  MPa (extrapolated)",
        "crystal_structure": "hexagonal close-packed (hcp)",
        "curie_point": NaN,
        "density_at_stp": NaN,
        "density_near_rt": "1.85 g/cm&sup3;",
        "density_when_liquid_at_mp": NaN,
        "discovery_and_first_isolation": NaN,
        "electrical_resistivity": "36 n?\u00b7m (at 20 \u00b0C)",
        "electron_configuration": "[He] 2s2",
        "electronegativity": "Pauling scale: 1.57",
        "element_category": "alkaline earth metal",
        "first_isolation": "Friedrich W\u00f6hler & Antoine Bussy (1828)",
        "group_block": "group 2 (alkaline earth metals), s-block",
        "heat_of_fusion": "12.2 kJ/mol",
        "heat_of_vaporisation": NaN,
        "heat_of_vaporization": "292 kJ/mol",
        "ionisation_energies": NaN,
        "ionization_energies": "1st: 899.5 kJ/mol, 2nd: 1757.1 kJ/mol, 3rd: 14,848.7 kJ/mol, (more)",
        "iso": "iso, NA, half-life, DM, DE (MeV), DP, 7Be, trace, 53.12 d, ?, 0.862, 7Li, ?, 0.477, \u2013, 9Be, 100%, 9Be is stable with 5 neutrons, 10Be, trace, 1.36\u00d7106 y, ??, 0.556, 10B",
        "magnetic_ordering": "diamagnetic",
        "melting_point": "1560 K (1287 \u00b0C, 2349 \u00b0F)",
        "mohs_hardness": "5.5",
        "molar_heat_capacity": "16.443 J/(mol\u00b7K)",
        "molar_volume": NaN,
        "name": "Beryllium",
        "named_by": NaN,
        "naming": NaN,
        "oxidation_states": "+2, +1 (an amphoteric oxide)",
        "p_(pa)": "vapor pressure, P (Pa), 1, 10, 100, 1 k, 10 k, 100 k, at T (K), 1462, 1608, 1791, 2023, 2327, 2742",
        "per_shell": "2, 2",
        "period": 2,
        "phase": "solid",
        "poisson_ratio": "0.032",
        "prediction": NaN,
        "pronunciation": "/b??r?li?m/, b?-RIL-ee-?m",
        "proposed_formal_name": NaN,
        "recognised_as_an_element_by": NaN,
        "recognized_as_a_distinct_element_by": NaN,
        "recognized_as_a_unique_metal_by": NaN,
        "recognized_as_an_element_by": NaN,
        "shear_modulus": "132 GPa",
        "speed_of_sound": NaN,
        "speed_of_sound_thin_rod": "12,890 m/s (at r.t.)",
        "sublimation_point": NaN,
        "symbol": "Be",
        "tensile_strength": NaN,
        "thermal_conductivity": "200 W/(m\u00b7K)",
        "thermal_diffusivity": NaN,
        "thermal_expansion": "11.3 \u00b5m/(m\u00b7K) (at 25 \u00b0C)",
        "triple_point": NaN,
        "van_der_waals_radius": "153 pm",
        "vickers_hardness": "1670 MPa",
        "when_liquid_at_bp": NaN,
        "when_liquid_at_mp": "1.690 g/cm3",
        "youngs_modulus": "287 GPa"
    }
}