{
    "rhenium_Re": {
        "allotropes": NaN,
        "alternative_name": NaN,
        "alternative_names": NaN,
        "appearance": "silvery-grayish",
        "at_t_(k)": 3303.0,
        "atomic_number": 75,
        "atomic_radius": "empirical: 137 pm",
        "atomic_weight": "186.207(1)",
        "band_gap": NaN,
        "boiling_point": "5903 K (5630 \u00b0C, 10,170 \u00b0F)",
        "brinell_hardness": "1320\u20132500 MPa",
        "bulk_modulus": "370 GPa",
        "cas_number": "7440-15-5",
        "color": NaN,
        "covalent_radius": "151\u00b17 pm",
        "critical_point": NaN,
        "crystal_structure": "hexagonal close-packed (hcp)",
        "curie_point": NaN,
        "density_at_stp": NaN,
        "density_near_rt": "21.02 g/cm3",
        "density_when_liquid_at_mp": NaN,
        "discovery": "Masataka Ogawa (1908)",
        "discovery_and_first_isolation": NaN,
        "electrical_resistivity": "193 n?\u00b7m (at 20 \u00b0C)",
        "electron_configuration": "[Xe] 4f14 5d5 6s2",
        "electronegativity": "Pauling scale: 1.9",
        "element_category": "transition metal",
        "first_isolation": "Masataka Ogawa (1919)",
        "group_block": "group 7, d-block",
        "heat_of_fusion": "60.43 kJ/mol",
        "heat_of_vaporisation": NaN,
        "heat_of_vaporization": "704 kJ/mol",
        "ionisation_energies": NaN,
        "ionization_energies": "1st: 760 kJ/mol, 2nd: 1260 kJ/mol, 3rd: 2510 kJ/mol, (more)",
        "iso": "iso, NA, half-life, DM, DE (MeV), DP, 185Re, 37.4%, 185Re is stable with 110 neutrons, 187Re, 62.6%, 4.12\u00d71010 y, ??, 0.0026, 187Os",
        "magnetic_ordering": "paramagnetic",
        "melting_point": "3459 K (3186 \u00b0C, 5767 \u00b0F)",
        "mohs_hardness": "7",
        "molar_heat_capacity": "25.48 J/(mol\u00b7K)",
        "molar_volume": NaN,
        "name": "Rhenium",
        "named_by": "Walter Noddack, Ida Noddack, Otto Berg (1922)",
        "naming": "after the river Rhine (German: Rhein)",
        "oxidation_states": "7, 6, 5, 4, 3, 2, 1, 0, ?1, ?3 (a mildly acidic oxide)",
        "p_(pa)": "vapor pressure, P (Pa), 1, 10, 100, 1 k, 10 k, 100 k, at T (K), 3303, 3614, 4009, 4500, 5127, 5954",
        "per_shell": "2, 8, 18, 32, 13, 2",
        "period": 6,
        "phase": "solid",
        "poisson_ratio": "0.3",
        "prediction": NaN,
        "pronunciation": "/?ri?ni?m/, REE-nee-?m",
        "proposed_formal_name": NaN,
        "recognised_as_an_element_by": NaN,
        "recognized_as_a_distinct_element_by": NaN,
        "recognized_as_a_unique_metal_by": NaN,
        "recognized_as_an_element_by": NaN,
        "shear_modulus": "178 GPa",
        "speed_of_sound": NaN,
        "speed_of_sound_thin_rod": "4700 m/s (at 20 \u00b0C)",
        "sublimation_point": NaN,
        "symbol": "Re",
        "tensile_strength": NaN,
        "thermal_conductivity": "48.0 W/(m\u00b7K)",
        "thermal_diffusivity": NaN,
        "thermal_expansion": "6.2 \u00b5m/(m\u00b7K)",
        "triple_point": NaN,
        "van_der_waals_radius": NaN,
        "vickers_hardness": "1350\u20137850 MPa",
        "when_liquid_at_bp": NaN,
        "when_liquid_at_mp": "18.9 g/cm3",
        "youngs_modulus": "463 GPa"
    }
}