var element_data = {
    "wiki": "https://en.wikipedia.org/wiki/Barium",
    "video": "https://www.youtube.com/watch?v=9srJdQU3NOo&list=PL7A1F4CF36C085DE1&index=56",
    "image": "Barium/barium.jpg",
    "species": "ALKALINE EARTH METALS",
    "symbol": "Ba",
    "latin_name": "Barium",
    "english_name": "Barium",
    "year_discovered": "1774",
    "discovered_by": "Humphry Davy",
    "Electron_shell": [
        {
            "K": 2
        },
        {
            "L": 8
        },
        {
            "M": 18
        },
        {
            "N": 18
        },
        {
            "O": 8
        },
        {
            "P": 2
        },
        {
            "Q": 0
        },
        {
            "R": 0
        }
    ],
    "epn_no": [
        {
            "electrons": 56,
        },
        {
            "protons": 56,
        },
        {
            "neutrons": 81
        }
    ],
    "atomic_number": 56,
    "atomic_weight": "137.327 (g/mol)",
    "density": "3.5 (g/cm³)",
    "melting_point": "727 °C = 1340.60 °F = 1000.15 K",
    "boiling_point": "1897 °C = 3446.60 °F = 2170.15 K",
    "valence_electrons": "2",
    "period": 6,
    "group": "II A",
    "block": "s-block",
    "emission_spectrum": "Barium/Ba.gif",
    "phase": "Solid",
    "phase_icon": "----",
    "fusion_heat": "8 (kJ &middot K)",
    "specific_heat": "205 J/(kg &middot; K)",
    "thermal_expansion": "20.6 &middot; 10<sup>-6</sup>°C<sup>-1</sup>)",
    "vaporization_heat": "140 kJ &middot; mol",
    "electron_configuration": "[Kr] 3d<sup>10</sup>",
    "oxidation_state": "+1, +2",
    "ion_charge": "Ba<sup>2+</sup>",
    "ionization_potential": "5.19 ev",
    "atomic_radius": "222 (pm)",
    "covalent_radius": "198 (pm)",
    "van_der_waals_radius": "268 (pm)",
    "electrical_conductivity": "2.9 &middot; 10<sup>6</sup>",
    "electrical_type": "Conductor", 
    "magnetic_type": "Paramagnetic",
    "volume_susceptibility": "-0.00003966",
    "mass_susceptibility": "-0.0000000113",
    "molar_susceptibility": "1.552 &middot; 10<sup>-9</sup> m<sup>3</sup>/mol",
    "resistivity": "3.5 &middot; 10<sup>-7</sup> m\u03A9",
    "superconducting_point": "----",
    "lattice_structure": "Barium/Lattice_body_centered_cubic.svg.png",
    "crystal_structure": "Body-centered cubic",
    "grid": "a=5.020 \u212B;",
    "attitude": "----",
    "debye_temperature": "----",
    "space_group_name": "Im_3m",
    "space_group_number": "229",
    "CAS_number": "CAS7440-39-3",
    "CID_number": "CID5355457",
    "RTEC_number": "RTECSCQ8370000",
    "brinell_hardness": "----",
    "mohs_hardness": "1.25",
    "vickers_hardness": "----",
    "bulk_modulus": "9.6 GPa",
    "Young_modulus": "13 GPa",
    "liquid_density": "3.338 (g/cm<sup>3</sup>)",
    "molar_volume": "39 (cm<sup>3</sup>/mol)",
    "poisson_ratio": "----",
    "shear_modulus": "4.9 GPa",
    "sound_speed": "1629 m/s",
    "refractive_index": "----",
    "thermal_conductivity": "18 W/mK",
    "electronegative": "Pauling Scale 0.89",
    "electron_affinity": "13.95 KJ/mol",
    "radioactivity": "no",
    "half_life": "\u221E",
    "life_time": "\u221E",
    "barn": "1.3 b",
    "hazard_block": [
        {
            "red": "1"
        },
        {
            "yellow": "2"
        },
        {
            "blue": "2"
        },
        {
            "white": "-"
        }
    ],
    "fire_hazard": "Above 93.3 °C",
    "health_hazard":"Hazardous",
    "reactivity": "Violent chemical change",
    "specific": "Use no water",
    "universe_contains": "1 &middot; 10<sup>-6</sup> %",
    "sun_contains": "9.9 &middot; 10<sup>-7</sup> %",
    "oceans_contains": "3 &middot; 10<sup>-6</sup> %",
    "human_body_contains": "0.00003 %",
    "earth_crust_contains": "0.034 %",
    "meteorites_contains": "0.00027 %",
    "start_isotope_number": 114,
    "stop_isotope_number": 121,
    "half_life_number": ["530 ms", "450 ms", "1.3 s", "1.75 s", "5.2 s", "5.4 s", "24 s", "29.7 s"],
    "iso_weight": [113.95068, 114.94737, 115.94138, 116.93850, 117.93304, 118.93066, 119.92604, 120.92405]
}