{
    "barium_Ba": {
        "allotropes": NaN,
        "alternative_name": NaN,
        "alternative_names": NaN,
        "appearance": "silvery gray; with a pale yellow tint",
        "at_t_(k)": 911.0,
        "atomic_number": 56,
        "atomic_radius": "empirical: 222 pm",
        "atomic_weight": "137.327(7)",
        "band_gap": NaN,
        "boiling_point": "2118 K (1845 \u00b0C, 3353 \u00b0F)",
        "brinell_hardness": NaN,
        "bulk_modulus": "9.6 GPa",
        "cas_number": "7440-39-3",
        "color": NaN,
        "covalent_radius": "215\u00b111 pm",
        "critical_point": NaN,
        "crystal_structure": "body-centered cubic (bcc)",
        "curie_point": NaN,
        "density_at_stp": NaN,
        "density_near_rt": "3.51 g/cm3",
        "density_when_liquid_at_mp": NaN,
        "discovery": "Carl Wilhelm Scheele (1772)",
        "discovery_and_first_isolation": NaN,
        "electrical_resistivity": "332 n?\u00b7m (at 20 \u00b0C)",
        "electron_configuration": "[Xe] 6s2",
        "electronegativity": "Pauling scale: 0.89",
        "element_category": "alkaline earth metals",
        "first_isolation": "Humphry Davy (1808)",
        "group_block": "group 2 (alkaline earth metals), s-block",
        "heat_of_fusion": "7.12 kJ/mol",
        "heat_of_vaporisation": NaN,
        "heat_of_vaporization": "142 kJ/mol",
        "ionisation_energies": NaN,
        "ionization_energies": "1st: 502.9 kJ/mol, 2nd: 965.2 kJ/mol, 3rd: 3600 kJ/mol",
        "iso": "iso, NA, half-life, DM, DE (MeV), DP, 130Ba, 0.11%, (0.5\u20132.7)\u00d71021 y, ??, 2.620, 130Xe, 132Ba, 0.10%, 132Ba is stable with 76 neutrons, 133Ba, syn, 10.51 y, ?, 0.517, 133Cs, 134Ba, 2.42%, 134Ba is stable with 78 neutrons, 135Ba, 6.59%, 135Ba is stable with 79 neutrons, 136Ba, 7.85%, 136Ba is stable with 80 neutrons, 137Ba, 11.23%, 137Ba is stable with 81 neutrons, 138Ba, 71.70%, 138Ba is stable with 82 neutrons",
        "magnetic_ordering": "paramagnetic",
        "melting_point": "1000 K (727 \u00b0C, 1341 \u00b0F)",
        "mohs_hardness": "1.25",
        "molar_heat_capacity": "28.07 J/(mol\u00b7K)",
        "molar_volume": NaN,
        "name": "Barium",
        "named_by": NaN,
        "naming": NaN,
        "oxidation_states": "+2, +1 (a strongly basic oxide)",
        "p_(pa)": "vapor pressure, P (Pa), 1, 10, 100, 1 k, 10 k, 100 k, at T (K), 911, 1038, 1185, 1388, 1686, 2170",
        "per_shell": "2, 8, 18, 18, 8, 2",
        "period": 6,
        "phase": "solid",
        "poisson_ratio": NaN,
        "prediction": NaN,
        "pronunciation": "/?b?ri?m/, BAIR-ee-?m",
        "proposed_formal_name": NaN,
        "recognised_as_an_element_by": NaN,
        "recognized_as_a_distinct_element_by": NaN,
        "recognized_as_a_unique_metal_by": NaN,
        "recognized_as_an_element_by": NaN,
        "shear_modulus": "4.9 GPa",
        "speed_of_sound": NaN,
        "speed_of_sound_thin_rod": "1620 m/s (at 20 \u00b0C)",
        "sublimation_point": NaN,
        "symbol": "Ba",
        "tensile_strength": NaN,
        "thermal_conductivity": "18.4 W/(m\u00b7K)",
        "thermal_diffusivity": NaN,
        "thermal_expansion": "20.6 \u00b5m/(m\u00b7K) (at 25 \u00b0C)",
        "triple_point": NaN,
        "van_der_waals_radius": "268 pm",
        "vickers_hardness": NaN,
        "when_liquid_at_bp": NaN,
        "when_liquid_at_mp": "3.338 g/cm3",
        "youngs_modulus": "13 GPa"
    }
}