{
    "terbium_Tb": {
        "allotropes": NaN,
        "alternative_name": NaN,
        "alternative_names": NaN,
        "appearance": "silvery white",
        "at_t_(k)": 1789.0,
        "atomic_number": 65,
        "atomic_radius": "empirical: 177 pm",
        "atomic_weight": "158.92535(2)",
        "band_gap": NaN,
        "boiling_point": "3396 K (3123 \u00b0C, 5653 \u00b0F)",
        "brinell_hardness": "675\u20131200 MPa",
        "bulk_modulus": "? form: 38.7 GPa",
        "cas_number": "7440-27-9",
        "color": NaN,
        "covalent_radius": "194\u00b15 pm",
        "critical_point": NaN,
        "crystal_structure": "hexagonal close-packed (hcp)",
        "curie_point": NaN,
        "density_at_stp": NaN,
        "density_near_rt": "8.23 g/cm3",
        "density_when_liquid_at_mp": NaN,
        "discovery": NaN,
        "discovery_and_first_isolation": "Carl Gustaf Mosander (1842)",
        "electrical_resistivity": "?, poly: 1.150 \u00b5?\u00b7m (at r.t.)",
        "electron_configuration": "[Xe] 4f9 6s2",
        "electronegativity": "Pauling scale: 1.2 (?)",
        "element_category": "lanthanide",
        "first_isolation": NaN,
        "group_block": "group n/a, f-block",
        "heat_of_fusion": "10.15 kJ/mol",
        "heat_of_vaporisation": NaN,
        "heat_of_vaporization": "391 kJ/mol",
        "ionisation_energies": NaN,
        "ionization_energies": "1st: 565.8 kJ/mol, 2nd: 1110 kJ/mol, 3rd: 2114 kJ/mol",
        "iso": "iso, NA, half-life, DM, DE (MeV), DP, 157Tb, syn, 71 y, ?, 0.060, 157Gd, 158Tb, syn, 180 y, ?, 1.220, 158Gd, ??, 0.937, 158Dy, 159Tb, 100%, 159Tb is stable with 94 neutrons",
        "magnetic_ordering": "paramagnetic at 300 K",
        "melting_point": "1629 K (1356 \u00b0C, 2473 \u00b0F)",
        "mohs_hardness": NaN,
        "molar_heat_capacity": "28.91 J/(mol\u00b7K)",
        "molar_volume": NaN,
        "name": "Terbium",
        "named_by": NaN,
        "naming": "after Ytterby (Sweden), where it was mined",
        "oxidation_states": "4, 3, 2, 1 (a weakly basic oxide)",
        "p_(pa)": "vapor pressure, P (Pa), 1, 10, 100, 1 k, 10 k, 100 k, at T (K), 1789, 1979, (2201), (2505), (2913), (3491)",
        "per_shell": "2, 8, 18, 27, 8, 2",
        "period": 6,
        "phase": "solid",
        "poisson_ratio": "? form: 0.261",
        "prediction": NaN,
        "pronunciation": "/?t??rbi?m/, TUR-bee-?m",
        "proposed_formal_name": NaN,
        "recognised_as_an_element_by": NaN,
        "recognized_as_a_distinct_element_by": NaN,
        "recognized_as_a_unique_metal_by": NaN,
        "recognized_as_an_element_by": NaN,
        "shear_modulus": "? form: 22.1 GPa",
        "speed_of_sound": NaN,
        "speed_of_sound_thin_rod": "2620 m/s (at 20 \u00b0C)",
        "sublimation_point": NaN,
        "symbol": "Tb",
        "tensile_strength": NaN,
        "thermal_conductivity": "11.1 W/(m\u00b7K)",
        "thermal_diffusivity": NaN,
        "thermal_expansion": "at r.t. ?, poly: 10.3 \u00b5m/(m\u00b7K)",
        "triple_point": NaN,
        "van_der_waals_radius": NaN,
        "vickers_hardness": "450\u2013865 MPa",
        "when_liquid_at_bp": NaN,
        "when_liquid_at_mp": "7.65 g/cm3",
        "youngs_modulus": "? form: 55.7 GPa"
    }
}