var element_data = {
    "wiki": "https://en.wikipedia.org/wiki/Terbium",
    "video": "https://www.youtube.com/watch?v=On5LjH9TQxY&list=PL7A1F4CF36C085DE1&index=65",
    "image": "Terbium/terbium.jpg",
    "species": "LANTHANOIDS",
    "symbol": "Tb",
    "latin_name": "Terbium",
    "english_name": "Terbium",
    "year_discovered": "1843",
    "discovered_by": "Carl Gustaf Mosander",
    "Electron_shell": [
        {
            "K": 2
        },
        {
            "L": 8
        },
        {
            "M": 18
        },
        {
            "N": 27
        },
        {
            "O": 8
        },
        {
            "P": 2
        },
        {
            "Q": 0
        },
        {
            "R": 0
        }
    ],
    "epn_no": [
        {
            "electrons": 65,
        },
        {
            "protons": 65,
        },
        {
            "neutrons": 94
        }
    ],
    "atomic_number": 65,
    "atomic_weight": "158.925 (g/mol)",
    "density": "8.25 (g/cm³)",
    "melting_point": "1360 °C = 2480.00 °F = 1633.15 K",
    "boiling_point": "3227 °C = 5840.60 °F = 3500.15 K",
    "valence_electrons": 3,
    "period": 6,
    "group": "----",
    "block": "f-block",
    "emission_spectrum": "Terbium/Tb.gif",
    "phase": "Solid",
    "phase_icon": "----",
    "fusion_heat": "10.8 (kJ &middot K)",
    "specific_heat": "182 J/(kg &middot; K)",
    "thermal_expansion": "10.3 &middot; 10<sup>-6</sup>°C<sup>-1</sup>)",
    "vaporization_heat": "295 kJ &middot; mol",
    "electron_configuration": "[Xe] 6s<sup>2</sup> 4f<sup>9</sup>",
    "oxidation_state": "+1, +2, +3, +4",
    "ion_charge": "Tb<sup>3+</sup>",
    "ionization_potential": "6.74 eV",
    "atomic_radius": "180 (pm)",
    "covalent_radius": "---- (pm)",
    "van_der_waals_radius": "---- (pm)",
    "electrical_conductivity": "8.3 &middot; 10<sup>6</sup>",
    "electrical_type": "Conductor", 
    "magnetic_type": "Paramagnetic",
    "volume_susceptibility": "0.1117784",
    "mass_susceptibility": "0.0000136",
    "molar_susceptibility": "2.161385 &middot; 10<sup>-6</sup> m<sup>3</sup>/mol",
    "resistivity": "1.2 &middot; 10<sup>-7</sup> m\u03A9",
    "superconducting_point": "----",
    "lattice_structure": "Terbium/Hexagonal_close_packed.svg.png",
    "crystal_structure": "Hexagonal close-packed",
    "grid": "a=3.600 \u212B; c=5.694 \u212B",
    "attitude": "1.582",
    "debye_temperature": "11.85 °C = 53.33 °F = 285 K",
    "space_group_name": "----",
    "space_group_number": "194",
    "CAS_number": "CAS7440-27-9",
    "CID_number": "CID23958",
    "RTEC_number": "----",
    "brinell_hardness": "675-1200 MPa",
    "mohs_hardness": "----",
    "vickers_hardness": "450-865 MPa",
    "bulk_modulus": "38.7 GPa",
    "Young_modulus": "55.7 GPa",
    "liquid_density": "7.65 (g/cm<sup>3</sup>)",
    "molar_volume": "19.2 (cm<sup>3</sup>/mol)",
    "poisson_ratio": "0.26 &micro;",
    "shear_modulus": "22 GPa",
    "sound_speed": "2620 m/s",
    "refractive_index": "----",
    "thermal_conductivity": "50 W/mK",
    "electronegative": "Pauling Scale ----",
    "electron_affinity": "50 KJ/mol",
    "radioactivity": "no",
    "half_life": "\u221E",
    "life_time": "\u221E",
    "barn": "23 b",
    "hazard_block": [
        {
            "red": "-"
        },
        {
            "yellow": "-"
        },
        {
            "blue": "-"
        },
        {
            "white": "-"
        }
    ],
    "fire_hazard": "----",
    "health_hazard":"----",
    "reactivity": "----",
    "specific": "----",
    "universe_contains": "---- %",
    "sun_contains": "1 &middot; 10<sup>-8</sup> %",
    "oceans_contains": "1.4 &middot; 10<sup>-11</sup> %",
    "human_body_contains": "---- %",
    "earth_crust_contains": "0.000093 %",
    "meteorites_contains": "3.9 &middot; 10<sup>-6</sup> %",
    "start_isotope_number": 135,
    "stop_isotope_number": 141,
    "half_life_number": ["-", "200 ms", "600 ms", "800 ms", "1.6 s", "2.4 s", "3.5 s"],
    "iso_weight": [NaN, 135.96138, 136.95598, 137.95316, 138.94829, 193.94581, 140.94145]
}