{
    "europium_Eu": {
        "allotropes": NaN,
        "alternative_name": NaN,
        "alternative_names": NaN,
        "appearance": "silvery white, with a pale yellow tint; but rarely seen without oxide discoloration",
        "at_t_(k)": 863.0,
        "atomic_number": 63,
        "atomic_radius": "empirical: 180 pm",
        "atomic_weight": "151.964(1)",
        "band_gap": NaN,
        "boiling_point": "1802 K (1529 \u00b0C, 2784 \u00b0F)",
        "brinell_hardness": NaN,
        "bulk_modulus": "8.3 GPa",
        "cas_number": "7440-53-1",
        "color": NaN,
        "covalent_radius": "198\u00b16 pm",
        "critical_point": NaN,
        "crystal_structure": "body-centered cubic (bcc)",
        "curie_point": NaN,
        "density_at_stp": NaN,
        "density_near_rt": "5.264 g/cm3",
        "density_when_liquid_at_mp": NaN,
        "discovery": NaN,
        "discovery_and_first_isolation": "Eug\u00e8ne-Anatole Demar\u00e7ay (1896, 1901)",
        "electrical_resistivity": "poly: 0.900 \u00b5?\u00b7m (at r.t.)",
        "electron_configuration": "[Xe] 4f7 6s2",
        "electronegativity": "Pauling scale: 1.2",
        "element_category": "lanthanide",
        "first_isolation": NaN,
        "group_block": "group n/a, f-block",
        "heat_of_fusion": "9.21 kJ/mol",
        "heat_of_vaporisation": NaN,
        "heat_of_vaporization": "176 kJ/mol",
        "ionisation_energies": NaN,
        "ionization_energies": "1st: 547.1 kJ/mol, 2nd: 1085 kJ/mol, 3rd: 2404 kJ/mol",
        "iso": "iso, NA, half-life, DM, DE (MeV), DP, 150Eu, syn, 36.9 y, ?, 2.261, 150Sm, 151Eu, 47.8%, 5\u00d71018 y, ?, 1.9644, 147Pm, 152Eu, syn, 13.54 y, ?, 1.874, 152Sm, ??, 1.819, 152Gd, 153Eu, 52.2%, 153Eu is stable with 90 neutrons, 154Eu, syn, 8.59 y, ??, 1.969, 154Gd, 155Eu, syn, 4.76 y, ??, 0.253, 155Gd",
        "magnetic_ordering": "paramagnetic",
        "melting_point": "1099 K (826 \u00b0C, 1519 \u00b0F)",
        "mohs_hardness": NaN,
        "molar_heat_capacity": "27.66 J/(mol\u00b7K)",
        "molar_volume": NaN,
        "name": "Europium",
        "named_by": NaN,
        "naming": "after Europe",
        "oxidation_states": "3, 2, 1 (a mildly basic oxide)",
        "p_(pa)": "vapor pressure, P (Pa), 1, 10, 100, 1 k, 10 k, 100 k, at T (K), 863, 957, 1072, 1234, 1452, 1796",
        "per_shell": "2, 8, 18, 25, 8, 2",
        "period": 6,
        "phase": "solid",
        "poisson_ratio": "0.152",
        "prediction": NaN,
        "pronunciation": "/j??ro?pi?m/, ew-ROH-pee-?m",
        "proposed_formal_name": NaN,
        "recognised_as_an_element_by": NaN,
        "recognized_as_a_distinct_element_by": NaN,
        "recognized_as_a_unique_metal_by": NaN,
        "recognized_as_an_element_by": NaN,
        "shear_modulus": "7.9 GPa",
        "speed_of_sound": NaN,
        "speed_of_sound_thin_rod": NaN,
        "sublimation_point": NaN,
        "symbol": "Eu",
        "tensile_strength": NaN,
        "thermal_conductivity": "est. 13.9 W/(m\u00b7K)",
        "thermal_diffusivity": NaN,
        "thermal_expansion": "poly: 35.0 \u00b5m/(m\u00b7K) (at r.t.)",
        "triple_point": NaN,
        "van_der_waals_radius": NaN,
        "vickers_hardness": "165\u2013200 MPa",
        "when_liquid_at_bp": NaN,
        "when_liquid_at_mp": "5.13 g/cm3",
        "youngs_modulus": "18.2 GPa"
    }
}