var element_data = {
    "wiki": "https://en.wikipedia.org/wiki/Rutherfordium",
    "video": "https://www.youtube.com/watch?v=dOj9ZjKnJcY&list=PL7A1F4CF36C085DE1&index=104",
    "image": "Rutherfordium/rutherfordium.jpg",
    "species": "TRANSITION METALS",
    "symbol": "Rf",
    "latin_name": "Rutherfordium",
    "english_name": "Rutherfordium",
    "year_discovered": "1964",
    "discovered_by": "Georgiy Flerov",
    "Electron_shell": [
        {
            "K": 2
        },
        {
            "L": 8
        },
        {
            "M": 18
        },
        {
            "N": 32
        },
        {
            "O": 32
        },
        {
            "P": 10
        },
        {
            "Q": 2
        },
        {
            "R": 0
        }
    ],
    "epn_no": [
        {
            "electrons": 104,
        },
        {
            "protons": 104,
        },
        {
            "neutrons": 1157
        }
    ],
    "atomic_number": 104,
    "atomic_weight": "261.1087 (g/mol)",
    "density": "23 (g/cm³)",
    "melting_point": "2100 °C = 3812 °F = 2373.15 K",
    "boiling_point": "5500 °C = 9932.00 °F = 5773.15 K",
    "valence_electrons": "4",
    "period": 7,
    "group": "IV B",
    "block": "d-block",
    "emission_spectrum": "Rutherfordium/Rf.gif",
    "phase": "----",
    "phase_icon": "----",
    "fusion_heat": "---- (kJ &middot K)",
    "specific_heat": "---- J/(kg &middot; K)",
    "thermal_expansion": "---- °C<sup>-1</sup>)",
    "vaporization_heat": "---- kJ &middot; mol",
    "electron_configuration": "[Rn] 7s<sup>2</sup>5f<sup>14</sup>6d<sup>2</sup>",
    "oxidation_state": "+4",
    "ion_charge": "----",
    "ionization_potential": "---- eV",
    "atomic_radius": "---- (pm)",
    "covalent_radius": "---- (pm)",
    "van_der_waals_radius": "---- (pm)",
    "electrical_conductivity": "----",
    "electrical_type": "----", 
    "magnetic_type": "----",
    "volume_susceptibility": "----",
    "mass_susceptibility": "----",
    "molar_susceptibility": "----",
    "resistivity": "---- m\u03A9",
    "superconducting_point": "----",
    "lattice_structure": "Rutherfordium/Hexagonal_close_packed.svg.png",
    "crystal_structure": "Hexagonal close-packed",
    "grid": "----",
    "attitude": "----",
    "debye_temperature": "----",
    "space_group_name": "----",
    "space_group_number": "----",
    "CAS_number": "CAS53850-36-5",
    "CID_number": "----",
    "RTEC_number": "----",
    "brinell_hardness": "---- MPa",
    "mohs_hardness": "----",
    "vickers_hardness": "----",
    "bulk_modulus": "---- GPa",
    "Young_modulus": "---- GPa",
    "liquid_density": "---- (g/cm<sup>3</sup>)",
    "molar_volume": "---- (cm<sup>3</sup>/mol)",
    "poisson_ratio": "-----",
    "shear_modulus": "---- GPa",
    "sound_speed": "---- m/s",
    "refractive_index": "----",
    "thermal_conductivity": "---- W/mK",
    "electronegative": "Pauling Scale ----",
    "electron_affinity": "---- KJ/mol",
    "radioactivity": "yes",
    "half_life": "80 m",
    "life_time": "1.8 Hours",
    "barn": "0 b",
    "hazard_block": [
        {
            "red": "-"
        },
        {
            "yellow": "-"
        },
        {
            "blue": "-"
        },
        {
            "white": "-"
        }
    ],
    "fire_hazard": "----",
    "health_hazard":"----",
    "reactivity": "----",
    "specific": "----",
    "universe_contains": "---- %",
    "sun_contains": "---- %",
    "oceans_contains": "---- %",
    "human_body_contains": "---- %",
    "earth_crust_contains": "---- %",
    "meteorites_contains": "---- %",
    "start_isotope_number": 253,
    "stop_isotope_number": 257,
    "half_life_number": ["13 ms", "23 &micro;s", "1.64 s", "6.45 ns", "4.7 s"],
    "iso_weight": [253.10069, 254.10018, 255.10134, 256.10116, 257.10299]
}