var element_data = {
    "wiki": "https://en.wikipedia.org/wiki/Lithium",
    "video": "https://www.youtube.com/watch?v=LfS10ArXTBA&list=PL7A1F4CF36C085DE1&index=3",
    "image": "Lithium/lithium.jpg",
    "species": "ALKALI METALS",
    "symbol": "Li",
    "latin_name": "Lithium",
    "english_name": "Lithium",
    "year_discovered": "1817",
    "discovered_by": "Johan August Arfwedson",
    "Electron_shell": [
        {
            "K": 2
        },
        {
            "L": 1
        },
        {
            "M": 0
        },
        {
            "N": 0
        },
        {
            "O": 0
        },
        {
            "P": 0
        },
        {
            "Q": 0
        },
        {
            "R": 0
        }
    ],
    "epn_no": [
        {
            "electrons": 3,
        },
        {
            "protons": 3,
        },
        {
            "neutrons": 4
        }
    ],
    "atomic_number": 4,
    "atomic_weight": "6.941 (g/mol)",
    "density": "0.534 (g/cm³)",
    "melting_point": "180.5 °C = 356.90 °F = 453.65 K",
    "boiling_point": "1342 °C = 2447.60 °F = 1615.15 K",
    "valence_electrons": "2",
    "period": 6,
    "group": "I A",
    "block": "s-block",
    "emission_spectrum": "Lithium/Li.gif",
    "phase": "Solid",
    "phase_icon": "----",
    "fusion_heat": "3 (kJ &middot K)",
    "specific_heat": "3570 J/(kg &middot; K)",
    "thermal_expansion": "46 &middot; 10<sup>-6</sup>°C<sup>-1</sup>)",
    "vaporization_heat": "147 kJ &middot; mol",
    "electron_configuration": "[He] 2s<sup>1</sup>",
    "oxidation_state": "+1",
    "ion_charge": "Li<sup>+</sup>",
    "ionization_potential": "5.37 eV",
    "atomic_radius": "145 (pm)",
    "covalent_radius": "134 (pm)",
    "van_der_waals_radius": "182 (pm)",
    "electrical_conductivity": "1.1 &middot; 10<sup>7</sup>",
    "electrical_type": "Conductor", 
    "magnetic_type": "Paramagnetic",
    "volume_susceptibility": "0.000000337",
    "mass_susceptibility": "0.0000000063",
    "molar_susceptibility": "1.78 &middot; 10<sup>-10</sup> m<sup>3</sup>/mol",
    "resistivity": "9.4 &middot; 10<sup>-8</sup> m\u03A9",
    "superconducting_point": "----",
    "lattice_structure": "Lithium/Lattice_body_centered_cubic.svg.png",
    "crystal_structure": "Body-centered cubic",
    "grid": "a=3.490 \u212B",
    "attitude": "----",
    "debye_temperature": "126.85 °C = 260.33 °F = 400 K",
    "space_group_name": "Im_3m",
    "space_group_number": "229",
    "CAS_number": "CAS7439-93-2",
    "CID_number": "CID3028194",
    "RTEC_number": "RTECSOJ5540000",
    "brinell_hardness": "5 MPa",
    "mohs_hardness": "0.6",
    "vickers_hardness": "----",
    "bulk_modulus": "11 GPa",
    "Young_modulus": "4.9 GPa",
    "liquid_density": "---- (g/cm<sup>3</sup>)",
    "molar_volume": "13.1 (cm<sup>3</sup>/mol)",
    "poisson_ratio": "----",
    "shear_modulus": "4.2 GPa",
    "sound_speed": "6000 m/s",
    "refractive_index": "----",
    "thermal_conductivity": "85 W/mK",
    "electronegative": "Pauling Scale 0.98",
    "electron_affinity": "59.6 KJ/mol",
    "radioactivity": "no",
    "half_life": "\u221E",
    "life_time": "\u221E",
    "barn": "0.045 b",
    "hazard_block": [
        {
            "red": "2"
        },
        {
            "yellow": "2"
        },
        {
            "blue": "3"
        },
        {
            "white": "-"
        }
    ],
    "fire_hazard": "Below 93.3 °C",
    "health_hazard":"Extreme danger",
    "reactivity": "Violent chemical change",
    "specific": "Use no water",
    "universe_contains": "6 &middot; 10<sup>-7</sup> %",
    "sun_contains": "6 &middot; 10<sup>-9</sup> %",
    "oceans_contains": "0.000018 %",
    "human_body_contains": "3 &middot; 10<sup>-6</sup> %",
    "earth_crust_contains": "0.0017 %",
    "meteorites_contains": "0.00017 %",
    "start_isotope_number": 4,
    "stop_isotope_number": 12,
    "half_life_number": ["91 &middot; 10<sup>-24</sup> s", "370 &middot; 10<sup>-24</sup> s", "-", "-", "840.3 ms", "178.3 ms", "2 &middot; 10<sup>-21</sup> s", "8.75 ms", "-"],
    "iso_weight": [4.02719, 5.01254, 6.01512, 7.01600, 8.02248, 9.02678, 10.03548, 11.04379, 12.05378]
}