{
    "lithium_Li": {
        "allotropes": NaN,
        "alternative_name": NaN,
        "alternative_names": NaN,
        "appearance": "silvery-white",
        "at_t_(k)": 797.0,
        "atomic_number": 3,
        "atomic_radius": "empirical: 152 pm",
        "atomic_weight": "6.94 (6.938\u20136.997)",
        "band_gap": NaN,
        "boiling_point": "1603 K (1330 \u00b0C, 2426 \u00b0F)",
        "brinell_hardness": "5 MPa",
        "bulk_modulus": "11 GPa",
        "cas_number": "7439-93-2",
        "color": NaN,
        "covalent_radius": "128\u00b17 pm",
        "critical_point": "3220 K, 67 MPa (extrapolated)",
        "crystal_structure": "body-centered cubic (bcc)",
        "curie_point": NaN,
        "density_at_stp": NaN,
        "density_near_rt": "0.534 g/cm3",
        "density_when_liquid_at_mp": NaN,
        "discovery": "Johan August Arfwedson (1817)",
        "discovery_and_first_isolation": NaN,
        "electrical_resistivity": "92.8 n?\u00b7m (at 20 \u00b0C)",
        "electron_configuration": "[He] 2s1",
        "electronegativity": "Pauling scale: 0.98",
        "element_category": "alkali metal",
        "first_isolation": "William Thomas Brande (1821)",
        "group_block": "group 1 (alkali metals), s-block",
        "heat_of_fusion": "3.00 kJ/mol",
        "heat_of_vaporisation": NaN,
        "heat_of_vaporization": "136 kJ/mol",
        "ionisation_energies": NaN,
        "ionization_energies": "1st: 520.2 kJ/mol, 2nd: 7298.1 kJ/mol, 3rd: 11815.0 kJ/mol",
        "iso": "iso, NA, half-life, DM, DE (MeV), DP, 6Li, 5%, 6Li is stable with 3 neutrons, 7Li, 95%, 7Li is stable with 4 neutrons",
        "magnetic_ordering": "paramagnetic",
        "melting_point": "453.65 K (180.50 \u00b0C, 356.90 \u00b0F)",
        "mohs_hardness": "0.6",
        "molar_heat_capacity": "24.860 J/(mol\u00b7K)",
        "molar_volume": NaN,
        "name": "Lithium",
        "named_by": NaN,
        "naming": NaN,
        "oxidation_states": "+1 (a strongly basic oxide)",
        "p_(pa)": "vapor pressure, P (Pa), 1, 10, 100, 1 k, 10 k, 100 k, at T (K), 797, 885, 995, 1144, 1337, 1610",
        "per_shell": "2, 1",
        "period": 2,
        "phase": "solid",
        "poisson_ratio": NaN,
        "prediction": NaN,
        "pronunciation": "/?l??i?m/, LI-thee-?m",
        "proposed_formal_name": NaN,
        "recognised_as_an_element_by": NaN,
        "recognized_as_a_distinct_element_by": NaN,
        "recognized_as_a_unique_metal_by": NaN,
        "recognized_as_an_element_by": NaN,
        "shear_modulus": "4.2 GPa",
        "speed_of_sound": NaN,
        "speed_of_sound_thin_rod": "6000 m/s (at 20 \u00b0C)",
        "sublimation_point": NaN,
        "symbol": "Li",
        "tensile_strength": NaN,
        "thermal_conductivity": "84.8 W/(m\u00b7K)",
        "thermal_diffusivity": NaN,
        "thermal_expansion": "46 \u00b5m/(m\u00b7K) (at 25 \u00b0C)",
        "triple_point": NaN,
        "van_der_waals_radius": "182 pm",
        "vickers_hardness": NaN,
        "when_liquid_at_bp": NaN,
        "when_liquid_at_mp": "0.512 g/cm3",
        "youngs_modulus": "4.9 GPa"
    }
}