{
    "platinum_Pt": {
        "allotropes": NaN,
        "alternative_name": NaN,
        "alternative_names": NaN,
        "appearance": "silvery white",
        "at_t_(k)": 2330.0,
        "atomic_number": 78,
        "atomic_radius": "empirical: 139 pm",
        "atomic_weight": "195.084(9)",
        "band_gap": NaN,
        "boiling_point": "4098 K (3825 \u00b0C, 6917 \u00b0F)",
        "brinell_hardness": "300\u2013500 MPa",
        "bulk_modulus": "230 GPa",
        "cas_number": "7440-06-4",
        "color": NaN,
        "covalent_radius": "136\u00b15 pm",
        "critical_point": NaN,
        "crystal_structure": "face-centered cubic (fcc)",
        "curie_point": NaN,
        "density_at_stp": NaN,
        "density_near_rt": "21.45 g/cm3",
        "density_when_liquid_at_mp": NaN,
        "discovery": NaN,
        "discovery_and_first_isolation": "Antonio de Ulloa (1748)",
        "electrical_resistivity": "105 n?\u00b7m (at 20 \u00b0C)",
        "electron_configuration": "[Xe] 4f14 5d9 6s1",
        "electronegativity": "Pauling scale: 2.28",
        "element_category": "transition metal",
        "first_isolation": NaN,
        "group_block": "group 10, d-block",
        "heat_of_fusion": "22.17 kJ/mol",
        "heat_of_vaporisation": NaN,
        "heat_of_vaporization": "510 kJ/mol",
        "ionisation_energies": NaN,
        "ionization_energies": "1st: 870 kJ/mol, 2nd: 1791 kJ/mol",
        "iso": "iso, NA, half-life, DM, DE (MeV), DP, 190Pt, 0.012%, 6.5\u00d71011 y, ?, 3.252, 186Os, 192Pt, 0.782%, 192Pt is stable with 114 neutrons, 193Pt, syn, 50 y, ?, \u2013, 193Ir, 194Pt, 32.864%, 194Pt is stable with 116 neutrons, 195Pt, 33.775%, 195Pt is stable with 117 neutrons, 196Pt, 25.211%, 196Pt is stable with 118 neutrons, 198Pt, 7.356%, 198Pt is stable with 120 neutrons",
        "magnetic_ordering": "paramagnetic",
        "melting_point": "2041.4 K (1768.3 \u00b0C, 3214.9 \u00b0F)",
        "mohs_hardness": "3.5",
        "molar_heat_capacity": "25.86 J/(mol\u00b7K)",
        "molar_volume": NaN,
        "name": "Platinum",
        "named_by": NaN,
        "naming": NaN,
        "oxidation_states": "6, 5, 4, 3, 2, 1, ?1, ?2, ?3 (a mildly basic oxide)",
        "p_(pa)": "vapor pressure, P (Pa), 1, 10, 100, 1 k, 10 k, 100 k, at T (K), 2330, (2550), 2815, 3143, 3556, 4094",
        "per_shell": "2, 8, 18, 32, 17, 1",
        "period": 6,
        "phase": "solid",
        "poisson_ratio": "0.38",
        "prediction": NaN,
        "pronunciation": "/?pl\u00e6t?n?m/, PLAT-i-n?m",
        "proposed_formal_name": NaN,
        "recognised_as_an_element_by": NaN,
        "recognized_as_a_distinct_element_by": NaN,
        "recognized_as_a_unique_metal_by": NaN,
        "recognized_as_an_element_by": NaN,
        "shear_modulus": "61 GPa",
        "speed_of_sound": NaN,
        "speed_of_sound_thin_rod": "2800 m/s (at r.t.)",
        "sublimation_point": NaN,
        "symbol": "Pt",
        "tensile_strength": "125\u2013240 MPa",
        "thermal_conductivity": "71.6 W/(m\u00b7K)",
        "thermal_diffusivity": NaN,
        "thermal_expansion": "8.8 \u00b5m/(m\u00b7K) (at 25 \u00b0C)",
        "triple_point": NaN,
        "van_der_waals_radius": "175 pm",
        "vickers_hardness": "400\u2013550 MPa",
        "when_liquid_at_bp": NaN,
        "when_liquid_at_mp": "19.77 g/cm3",
        "youngs_modulus": "168 GPa"
    }
}