{
    "gold_Au": {
        "allotropes": NaN,
        "alternative_name": NaN,
        "alternative_names": NaN,
        "appearance": "metallic yellow",
        "at_t_(k)": 1646.0,
        "atomic_number": 79,
        "atomic_radius": "empirical: 144 pm",
        "atomic_weight": "196.966569(5)",
        "band_gap": NaN,
        "boiling_point": "3243 K (2970 \u00b0C, 5378 \u00b0F)",
        "brinell_hardness": "188\u2013245 MPa",
        "bulk_modulus": "180 GPa",
        "cas_number": "7440-57-5",
        "color": NaN,
        "covalent_radius": "136\u00b16 pm",
        "critical_point": NaN,
        "crystal_structure": "face-centered cubic (fcc)",
        "curie_point": NaN,
        "density_at_stp": NaN,
        "density_near_rt": "19.30 g/cm3",
        "density_when_liquid_at_mp": NaN,
        "discovery": "In the Middle East (before 6000 BCE)",
        "discovery_and_first_isolation": NaN,
        "electrical_resistivity": "22.14 n?\u00b7m (at 20 \u00b0C)",
        "electron_configuration": "[Xe] 4f14 5d10 6s1",
        "electronegativity": "Pauling scale: 2.54",
        "element_category": "transition metal",
        "first_isolation": NaN,
        "group_block": "group 11, d-block",
        "heat_of_fusion": "12.55 kJ/mol",
        "heat_of_vaporisation": NaN,
        "heat_of_vaporization": "342 kJ/mol",
        "ionisation_energies": NaN,
        "ionization_energies": "1st: 890.1 kJ/mol, 2nd: 1980 kJ/mol",
        "iso": "iso, NA, half-life, DM, DE (MeV), DP, 195Au, syn, 186.10 d, ?, 0.227, 195Pt, 196Au, syn, 6.183 d, ?, 1.506, 196Pt, ??, 0.686, 196Hg, 197Au, 100%, 197Au is stable with 118 neutrons, 198Au, syn, 2.69517 d, ??, 1.372, 198Hg, 199Au, syn, 3.169 d, ??, 0.453, 199Hg",
        "magnetic_ordering": "diamagnetic",
        "melting_point": "1337.33 K (1064.18 \u00b0C, 1947.52 \u00b0F)",
        "mohs_hardness": "2.5",
        "molar_heat_capacity": "25.418 J/(mol\u00b7K)",
        "molar_volume": NaN,
        "name": "Gold",
        "named_by": NaN,
        "naming": "from Latin aurum, meaning gold",
        "oxidation_states": "5, 3, 2, 1, ?1, ?2, ?3 (an amphoteric oxide)",
        "p_(pa)": "vapor pressure, P (Pa), 1, 10, 100, 1 k, 10 k, 100 k, at T (K), 1646, 1814, 2021, 2281, 2620, 3078",
        "per_shell": "2, 8, 18, 32, 18, 1",
        "period": 6,
        "phase": "solid",
        "poisson_ratio": "0.4",
        "prediction": NaN,
        "pronunciation": "/??o?ld/, GOHLD",
        "proposed_formal_name": NaN,
        "recognised_as_an_element_by": NaN,
        "recognized_as_a_distinct_element_by": NaN,
        "recognized_as_a_unique_metal_by": NaN,
        "recognized_as_an_element_by": NaN,
        "shear_modulus": "27 GPa",
        "speed_of_sound": NaN,
        "speed_of_sound_thin_rod": "2030 m/s (at r.t.)",
        "sublimation_point": NaN,
        "symbol": "Au",
        "tensile_strength": "120 MPa",
        "thermal_conductivity": "318 W/(m\u00b7K)",
        "thermal_diffusivity": NaN,
        "thermal_expansion": "14.2 \u00b5m/(m\u00b7K) (at 25 \u00b0C)",
        "triple_point": NaN,
        "van_der_waals_radius": "166 pm",
        "vickers_hardness": "188\u2013216 MPa",
        "when_liquid_at_bp": NaN,
        "when_liquid_at_mp": "17.31 g/cm3",
        "youngs_modulus": "79 GPa"
    }
}