{
    "zinc_Zn": {
        "allotropes": NaN,
        "alternative_name": NaN,
        "alternative_names": NaN,
        "appearance": "silver-gray",
        "at_t_(k)": 610.0,
        "atomic_number": 30,
        "atomic_radius": "empirical: 134 pm",
        "atomic_weight": "65.38(2)",
        "band_gap": NaN,
        "boiling_point": "1180 K (907 \u00b0C, 1665 \u00b0F)",
        "brinell_hardness": "327\u2013412 MPa",
        "bulk_modulus": "70 GPa",
        "cas_number": "7440-66-6",
        "color": NaN,
        "covalent_radius": "122\u00b14 pm",
        "critical_point": NaN,
        "crystal_structure": "hexagonal close-packed (hcp)",
        "curie_point": NaN,
        "density_at_stp": NaN,
        "density_near_rt": "7.14 g/cm3",
        "density_when_liquid_at_mp": NaN,
        "discovery": "Indian metallurgists (before 1000 BCE)",
        "discovery_and_first_isolation": NaN,
        "electrical_resistivity": "59.0 n?\u00b7m (at 20 \u00b0C)",
        "electron_configuration": "[Ar] 3d10 4s2",
        "electronegativity": "Pauling scale: 1.65",
        "element_category": "transition metal, alternatively considered a post-transition metal",
        "first_isolation": "Andreas Sigismund Marggraf (1746)",
        "group_block": "group 12, d-block",
        "heat_of_fusion": "7.32 kJ/mol",
        "heat_of_vaporisation": NaN,
        "heat_of_vaporization": "115 kJ/mol",
        "ionisation_energies": NaN,
        "ionization_energies": "1st: 906.4 kJ/mol, 2nd: 1733.3 kJ/mol, 3rd: 3833 kJ/mol, (more)",
        "iso": "iso, NA, half-life, DM, DE (MeV), DP, 64Zn, 49.2%, 64Zn is stable with 34 neutrons, 65Zn, syn, 243.8 d, ?, 1.3519, 65Cu, ?, 1.1155, \u2013, 66Zn, 27.7%, 66Zn is stable with 36 neutrons, 67Zn, 4.0%, 67Zn is stable with 37 neutrons, 68Zn, 18.5%, 68Zn is stable with 38 neutrons, 69Zn, syn, 56 min, ??, 0.906, 69Ga, 69mZn, syn, 13.76 h, ??, 0.906, 69Ga, 70Zn, 0.6%, 70Zn is stable with 40 neutrons, 71Zn, syn, 2.4 min, ??, 2.82, 71Ga, 71mZn, syn, 3.97 d, ??, 2.82, 71Ga, 72Zn, syn, 46.5 h, ??, 0.458, 72Ga",
        "magnetic_ordering": "diamagnetic",
        "melting_point": "692.68 K (419.53 \u00b0C, 787.15 \u00b0F)",
        "mohs_hardness": "2.5",
        "molar_heat_capacity": "25.470 J/(mol\u00b7K)",
        "molar_volume": NaN,
        "name": "Zinc",
        "named_by": NaN,
        "naming": NaN,
        "oxidation_states": "-2, 0, +1, +2 (an amphoteric oxide)",
        "p_(pa)": "vapor pressure, P (Pa), 1, 10, 100, 1 k, 10 k, 100 k, at T (K), 610, 670, 750, 852, 990, 1179",
        "per_shell": "2, 8, 18, 2",
        "period": 4,
        "phase": "solid",
        "poisson_ratio": "0.25",
        "prediction": NaN,
        "pronunciation": "/?z??k/, ZINGK",
        "proposed_formal_name": NaN,
        "recognised_as_an_element_by": NaN,
        "recognized_as_a_distinct_element_by": NaN,
        "recognized_as_a_unique_metal_by": "Rasaratna Samuccaya (800)",
        "recognized_as_an_element_by": NaN,
        "shear_modulus": "43 GPa",
        "speed_of_sound": NaN,
        "speed_of_sound_thin_rod": "3850 m/s (at r.t.) (rolled)",
        "sublimation_point": NaN,
        "symbol": "Zn",
        "tensile_strength": NaN,
        "thermal_conductivity": "116 W/(m\u00b7K)",
        "thermal_diffusivity": NaN,
        "thermal_expansion": "30.2 \u00b5m/(m\u00b7K) (at 25 \u00b0C)",
        "triple_point": NaN,
        "van_der_waals_radius": "139 pm",
        "vickers_hardness": NaN,
        "when_liquid_at_bp": NaN,
        "when_liquid_at_mp": "6.57 g/cm3",
        "youngs_modulus": "108 GPa"
    }
}