var element_data = {
    "wiki": "https://en.wikipedia.org/wiki/Zinc",
    "video": "https://www.youtube.com/watch?v=99wPiMb-k0o&list=PL7A1F4CF36C085DE1&index=30",
    "image": "Zinc/zinc.jpg",
    "species": "TRANSITION METALS",
    "symbol": "Zn",
    "latin_name": "Zincum",
    "english_name": "Zinc",
    "year_discovered": "1776",
    "discovered_by": "Andreas Sigismund Marggraf",
    "Electron_shell": [
        {
            "K": 2
        },
        {
            "L": 8
        },
        {
            "M": 18
        },
        {
            "N": 2
        },
        {
            "O": 0
        },
        {
            "P": 0
        },
        {
            "Q": 0
        },
        {
            "R": 0
        }
    ],
    "epn_no": [
        {
            "electrons": 56,
        },
        {
            "protons": 56,
        },
        {
            "neutrons": 81
        }
    ],
    "atomic_number": 30,
    "atomic_weight": "65.38 (g/mol)",
    "density": "7.133 (g/cm³)",
    "melting_point": "419.5 °C = 787.10 °F = 692.65 K",
    "boiling_point": "906 °C = 1662.80 °F = 1179.15 K",
    "valence_electrons": "2",
    "period": 4,
    "group": "II B",
    "block": "d-block",
    "emission_spectrum": "Zinc/Zn.gif",
    "phase": "Solid",
    "phase_icon": "----",
    "fusion_heat": "7.35 (kJ &middot K)",
    "specific_heat": "388 J/(kg &middot; K)",
    "thermal_expansion": "30.4 &middot; 10<sup>-6</sup>°C<sup>-1</sup>)",
    "vaporization_heat": "119 kJ &middot; mol",
    "electron_configuration": "[Ar] 3d<sup>10</sup> 4s<sup>2</sup>",
    "oxidation_state": "-2, +1, +2",
    "ion_charge": "Zn<sup>2+</sup>",
    "ionization_potential": "9.35 eV",
    "atomic_radius": "138 (pm)",
    "covalent_radius": "131 (pm)",
    "van_der_waals_radius": "139 (pm)",
    "electrical_conductivity": "1.7 &middot; 10<sup>7</sup>",
    "electrical_type": "Conductor", 
    "magnetic_type": "Diamagnetic",
    "volume_susceptibility": "-0.0000158",
    "mass_susceptibility": "-0.00000000221",
    "molar_susceptibility": "-1.45 &middot; 10<sup>-10</sup> m<sup>3</sup>/mol",
    "resistivity": "5.9 &middot; 10<sup>-8</sup> m\u03A9",
    "superconducting_point": "----",
    "lattice_structure": "Zinc/Hexagonal_close_packed.svg.png",
    "crystal_structure": "Hexagonal close-packed",
    "grid": "a=2.6648 \u212B; c=4.9468 \u212B",
    "attitude": "1.856",
    "debye_temperature": "-39.15 °C = -38.47 °F = 234 K",
    "space_group_name": "----",
    "space_group_number": "194",
    "CAS_number": "CAS7440-66-6",
    "CID_number": "CID23994",
    "RTEC_number": "RTECSZG8600000",
    "brinell_hardness": "327-412 MPa",
    "mohs_hardness": "2.5",
    "vickers_hardness": "----",
    "bulk_modulus": "70 GPa",
    "Young_modulus": "108 GPa",
    "liquid_density": "6.57 (g/cm<sup>3</sup>)",
    "molar_volume": "11.8 (cm<sup>3</sup>/mol)",
    "poisson_ratio": "0.25 &micro;",
    "shear_modulus": "43 GPa",
    "sound_speed": "3700 m/s",
    "refractive_index": "1.001552",
    "thermal_conductivity": "120 W/mK",
    "electronegative": "Pauling Scale 1.65",
    "electron_affinity": "0 KJ/mol",
    "radioactivity": "no",
    "half_life": "\u221E",
    "life_time": "\u221E",
    "barn": "1.1 b",
    "hazard_block": [
        {
            "red": "0"
        },
        {
            "yellow": "0"
        },
        {
            "blue": "2"
        },
        {
            "white": "-"
        }
    ],
    "fire_hazard": "Will not burn",
    "health_hazard":"Hazardous",
    "reactivity": "Stable",
    "specific": "Use no water",
    "universe_contains": "0.00003 %",
    "sun_contains": "0.0002 %",
    "oceans_contains": "5 &middot; 10<sup>-7</sup> %",
    "human_body_contains": "0.0033 %",
    "earth_crust_contains": "0.0068 %",
    "meteorites_contains": "0.018 %",
    "start_isotope_number": 54,
    "stop_isotope_number": 61,
    "half_life_number": ["-", "20 ms", "36 ms", "38 ms", "84 ms", "182 ms", "2.38 m", "891 s"],
    "iso_weight": [53.99295, 54.98394, 55.97238, 56.96479, 57.95459, 58.94926, 59.941, 60.939]
}