var element_data = {
    "wiki": "https://en.wikipedia.org/wiki/Nihonium",
    "video": "https://www.youtube.com/watch?v=-HcSEKuYGM8&list=PL7A1F4CF36C085DE1&index=113",
    "image": "Nihonium/nihonium.jpg",
    "species": "POST-TRANSITION METAL",
    "symbol": "Nh",
    "latin_name": "Nihonium",
    "english_name": "Nihonium",
    "year_discovered": "1774",
    "discovered_by": "RIKEN",
    "Electron_shell": [
        {
            "K": 2
        },
        {
            "L": 8
        },
        {
            "M": 18
        },
        {
            "N": 32
        },
        {
            "O": 32
        },
        {
            "P": 18
        },
        {
            "Q": 3
        },
        {
            "R": 0
        }
    ],
    "epn_no": [
        {
            "electrons": 113,
        },
        {
            "protons": 113,
        },
        {
            "neutrons": 173
        }
    ],
    "atomic_number": 113,
    "atomic_weight": "286.1810 (g/mol)",
    "density": "16 (g/cm³)",
    "melting_point": "425 °C = 797.00 °F = 698.15 K",
    "boiling_point": "1155 °C = 2111.00 °F = 1428.15 K",
    "valence_electrons": "-",
    "period": 7,
    "group": "III A",
    "block": "p-block",
    "emission_spectrum": "Barium/Ba.gif",
    "phase": "----",
    "phase_icon": "----",
    "fusion_heat": "---- (kJ &middot K)",
    "specific_heat": "---- J/(kg &middot; K)",
    "thermal_expansion": "---- &middot; 10<sup>-6</sup>°C<sup>-1</sup>)",
    "vaporization_heat": "---- kJ &middot; mol",
    "electron_configuration": "[Rn] 7s<sup>2</sup> 5f<sup>14</sup> 6d<sup>10</sup> 7p<sup>1</sup>",
    "oxidation_state": "----",
    "ion_charge": "----",
    "ionization_potential": "---- eV",
    "atomic_radius": "170 (pm)",
    "covalent_radius": "---- (pm)",
    "van_der_waals_radius": "---- (pm)",
    "electrical_conductivity": "----",
    "electrical_type": "----", 
    "magnetic_type": "----",
    "volume_susceptibility": "----",
    "mass_susceptibility": "----",
    "molar_susceptibility": "---- m<sup>3</sup>/mol",
    "resistivity": "---- m\u03A9",
    "superconducting_point": "----",
    "lattice_structure": "Nihonium/Hexagonal_close_packed.svg.png",
    "crystal_structure": "Hexagonal close-packed",
    "grid": "----",
    "attitude": "----",
    "debye_temperature": "----",
    "space_group_name": "----",
    "space_group_number": "----",
    "CAS_number": "CAS54084-70-7",
    "CID_number": "----",
    "RTEC_number": "----",
    "brinell_hardness": "---- MPa",
    "mohs_hardness": "----",
    "vickers_hardness": "----",
    "bulk_modulus": "---- GPa",
    "Young_modulus": "---- GPa",
    "liquid_density": "---- (g/cm<sup>3</sup>)",
    "molar_volume": "---- (cm<sup>3</sup>/mol)",
    "poisson_ratio": "----",
    "shear_modulus": "---- GPa",
    "sound_speed": "---- m/s",
    "refractive_index": "----",
    "thermal_conductivity": "---- W/mK",
    "electronegative": "Pauling Scale ----",
    "electron_affinity": "---- KJ/mol",
    "radioactivity": "yes",
    "half_life": "20 m",
    "life_time": "29 m",
    "barn": "0 b",
    "hazard_block": [
        {
            "red": "-"
        },
        {
            "yellow": "-"
        },
        {
            "blue": "-"
        },
        {
            "white": "-"
        }
    ],
    "fire_hazard": "----",
    "health_hazard":"----",
    "reactivity": "----",
    "specific": "----",
    "universe_contains": "---- %",
    "sun_contains": "---- %",
    "oceans_contains": "---- %",
    "human_body_contains": "---- %",
    "earth_crust_contains": "---- %",
    "meteorites_contains": "---- %",
    "start_isotope_number": 282,
    "stop_isotope_number": 287,
    "half_life_number": ["73 ms", "100 ms", "480 ms", "5.5 s", "19.6 s", "20 m"],
    "iso_weight": [NaN, 283.17345, 284.17808, 285.17873, 246.18048, 287.18105]
}