{
    "ununtrium_Uut": {
        "allotropes": NaN,
        "alternative_name": NaN,
        "alternative_names": "element 113, eka-thallium",
        "appearance": NaN,
        "at_t_(k)": NaN,
        "atomic_number": 113,
        "atomic_radius": "empirical: 170 pm (predicted)",
        "atomic_weight": "[286]",
        "band_gap": NaN,
        "boiling_point": "1430 K (1130 \u00b0C, 2070 \u00b0F) (predicted)",
        "brinell_hardness": NaN,
        "bulk_modulus": NaN,
        "cas_number": "54084-70-7",
        "color": NaN,
        "covalent_radius": "172\u2013180 pm (extrapolated)",
        "critical_point": NaN,
        "crystal_structure": NaN,
        "curie_point": NaN,
        "density_at_stp": NaN,
        "density_near_rt": "16 g/cm3 (predicted)",
        "density_when_liquid_at_mp": NaN,
        "discovery": "RIKEN (2004, first undisputed)\nJoint Institute for Nuclear Research and Lawrence Livermore National Laboratory (2003, first announced)",
        "discovery_and_first_isolation": NaN,
        "electrical_resistivity": NaN,
        "electron_configuration": "[Rn] 5f14 6d10 7s2 7p1 (predicted)",
        "electronegativity": NaN,
        "element_category": "unknown, but probably a post-transition metal",
        "first_isolation": NaN,
        "group_block": "group 13, p-block",
        "heat_of_fusion": "7.61 kJ/mol (extrapolated)",
        "heat_of_vaporisation": NaN,
        "heat_of_vaporization": "130 kJ/mol (predicted)",
        "ionisation_energies": NaN,
        "ionization_energies": "1st: 704.9 kJ/mol (predicted), 2nd: 2238.5 kJ/mol (predicted), 3rd: 3203.3 kJ/mol (predicted), (more)",
        "iso": "iso\nNA\nhalf-life\nDM\nDE (MeV)\nDP\n\n\n286Uut\nsyn\n20 s\n?\n9.63\n282Rg\n\n\n285Uut\nsyn\n5.5 s\n?\n9.74, 9.48\n281Rg\n\n\n284Uut\nsyn\n0.48 s\n?\n10.00\n280Rg\n\n\nEC\n\n284Cn\n\n\n283Uut\nsyn\n0.10 s\n?\n10.12\n279Rg\n\n\n282Uut\nsyn\n70 ms\n?\n10.63\n278Rg\n\n\n278Uut\nsyn\n0.24 ms\n?\n11.68\n274Rg",
        "magnetic_ordering": NaN,
        "melting_point": "700 K (430 \u00b0C, 810 \u00b0F) (predicted)",
        "mohs_hardness": NaN,
        "molar_heat_capacity": NaN,
        "molar_volume": NaN,
        "name": "Ununtrium",
        "named_by": NaN,
        "naming": "IUPAC systematic element name",
        "oxidation_states": "?1, 1, 3, 5 (predicted)",
        "p_(pa)": NaN,
        "per_shell": "2, 8, 18, 32, 32, 18, 3 (predicted)",
        "period": 7,
        "phase": "solid (predicted)",
        "poisson_ratio": NaN,
        "prediction": NaN,
        "pronunciation": "i/u?nu?n?tra??m/, oon-oon-TRY-?m",
        "proposed_formal_name": "nihonium, Nh",
        "recognised_as_an_element_by": NaN,
        "recognized_as_a_distinct_element_by": NaN,
        "recognized_as_a_unique_metal_by": NaN,
        "recognized_as_an_element_by": NaN,
        "shear_modulus": NaN,
        "speed_of_sound": NaN,
        "speed_of_sound_thin_rod": NaN,
        "sublimation_point": NaN,
        "symbol": "Uut",
        "tensile_strength": NaN,
        "thermal_conductivity": NaN,
        "thermal_diffusivity": NaN,
        "thermal_expansion": NaN,
        "triple_point": NaN,
        "van_der_waals_radius": NaN,
        "vickers_hardness": NaN,
        "when_liquid_at_bp": NaN,
        "when_liquid_at_mp": NaN,
        "youngs_modulus": NaN
    }
}