{
    "thallium_Tl": {
        "allotropes": NaN,
        "alternative_name": NaN,
        "alternative_names": NaN,
        "appearance": "silvery white",
        "at_t_(k)": 882.0,
        "atomic_number": 81,
        "atomic_radius": "empirical: 170 pm",
        "atomic_weight": "204.38 (204.382\u2013204.385)",
        "band_gap": NaN,
        "boiling_point": "1746 K (1473 \u00b0C, 2683 \u00b0F)",
        "brinell_hardness": "26.5\u201344.7 MPa",
        "bulk_modulus": "43 GPa",
        "cas_number": "7440-28-0",
        "color": NaN,
        "covalent_radius": "145\u00b17 pm",
        "critical_point": NaN,
        "crystal_structure": "hexagonal close-packed (hcp)",
        "curie_point": NaN,
        "density_at_stp": NaN,
        "density_near_rt": "11.85 g/cm3",
        "density_when_liquid_at_mp": NaN,
        "discovery": "William Crookes (1861)",
        "discovery_and_first_isolation": NaN,
        "electrical_resistivity": "0.18 \u00b5?\u00b7m (at 20 \u00b0C)",
        "electron_configuration": "[Xe] 4f14 5d10 6s2 6p1",
        "electronegativity": "Pauling scale: 1.62",
        "element_category": "post-transition metal",
        "first_isolation": "Claude-Auguste Lamy (1862)",
        "group_block": "group 13, p-block",
        "heat_of_fusion": "4.14 kJ/mol",
        "heat_of_vaporisation": NaN,
        "heat_of_vaporization": "165 kJ/mol",
        "ionisation_energies": NaN,
        "ionization_energies": "1st: 589.4 kJ/mol, 2nd: 1971 kJ/mol, 3rd: 2878 kJ/mol",
        "iso": "iso, NA, half-life, DM, DE (MeV), DP, 203Tl, 29.5%, 203Tl is stable with 122 neutrons, 204Tl, syn, 3.78 y, ??, 0.764, 204Pb, ?, 0.347, 204Hg, 205Tl, 70.5%, 205Tl is stable with 124 neutrons",
        "magnetic_ordering": "diamagnetic",
        "melting_point": "577 K (304 \u00b0C, 579 \u00b0F)",
        "mohs_hardness": "1.2",
        "molar_heat_capacity": "26.32 J/(mol\u00b7K)",
        "molar_volume": NaN,
        "name": "Thallium",
        "named_by": NaN,
        "naming": NaN,
        "oxidation_states": "3, 2, 1, ?1, ?2, ?5 (a mildly basic oxide)",
        "p_(pa)": "vapor pressure, P (Pa), 1, 10, 100, 1 k, 10 k, 100 k, at T (K), 882, 977, 1097, 1252, 1461, 1758",
        "per_shell": "2, 8, 18, 32, 18, 3",
        "period": 6,
        "phase": "solid",
        "poisson_ratio": "0.45",
        "prediction": NaN,
        "pronunciation": "/??\u00e6li?m/, THAL-ee-?m",
        "proposed_formal_name": NaN,
        "recognised_as_an_element_by": NaN,
        "recognized_as_a_distinct_element_by": NaN,
        "recognized_as_a_unique_metal_by": NaN,
        "recognized_as_an_element_by": NaN,
        "shear_modulus": "2.8 GPa",
        "speed_of_sound": NaN,
        "speed_of_sound_thin_rod": "818 m/s (at 20 \u00b0C)",
        "sublimation_point": NaN,
        "symbol": "Tl",
        "tensile_strength": NaN,
        "thermal_conductivity": "46.1 W/(m\u00b7K)",
        "thermal_diffusivity": NaN,
        "thermal_expansion": "29.9 \u00b5m/(m\u00b7K) (at 25 \u00b0C)",
        "triple_point": NaN,
        "van_der_waals_radius": "196 pm",
        "vickers_hardness": NaN,
        "when_liquid_at_bp": NaN,
        "when_liquid_at_mp": "11.22 g/cm3",
        "youngs_modulus": "8 GPa"
    }
}