var element_data = {
    "wiki": "https://en.wikipedia.org/wiki/Ytterbium",
    "video": "https://www.youtube.com/watch?v=Rp7-yNvOV4I&list=PL7A1F4CF36C085DE1&index=70",
    "image": "Ytterbium/ytterbium.jpg",
    "species": "ALKALINE EARTH METALS",
    "symbol": "Yb",
    "latin_name": "Ytterbium",
    "english_name": "Ytterbium",
    "year_discovered": "1774",
    "discovered_by": "Humphry Davy",
    "Electron_shell": [
        {
            "K": 2
        },
        {
            "L": 8
        },
        {
            "M": 18
        },
        {
            "N": 32
        },
        {
            "O": 8
        },
        {
            "P": 2
        },
        {
            "Q": 0
        },
        {
            "R": 0
        }
    ],
    "epn_no": [
        {
            "electrons": 70,
        },
        {
            "protons": 70,
        },
        {
            "neutrons": 103
        }
    ],
    "atomic_number": 70,
    "atomic_weight": "173.04 (g/mol)",
    "density": "6.97 (g/cm³)",
    "melting_point": "824 °C = 1515.20 °F = 1097.15 K",
    "boiling_point": "1193 °C = 2179.40 °F = 1466.15 K",
    "valence_electrons": 3,
    "period": 6,
    "group": "----",
    "block": "f-block",
    "emission_spectrum": "Ytterbium/Yb.gif",
    "phase": "Solid",
    "phase_icon": "----",
    "fusion_heat": "7.7 (kJ &middot K)",
    "specific_heat": "154 J/(kg &middot; K)",
    "thermal_expansion": "26.3 &middot; 10<sup>-6</sup>°C<sup>-1</sup>)",
    "vaporization_heat": "160 kJ &middot; mol",
    "electron_configuration": "[Xe] 6s<sup>2</sup> 4f<sup>14</sup>",
    "oxidation_state": "+2, +3",
    "ion_charge": "Yb<sup>2+</sup>, Yb<sup>3+</sup>",
    "ionization_potential": "7.06 eV",
    "atomic_radius": "194 (pm)",
    "covalent_radius": "---- (pm)",
    "van_der_waals_radius": "---- (pm)",
    "electrical_conductivity": "3.6 &middot; 10<sup>6</sup>",
    "electrical_type": "Conductor", 
    "magnetic_type": "----",
    "volume_susceptibility": "0.0000388",
    "mass_susceptibility": "0.0000000059",
    "molar_susceptibility": "1.02 &middot; 10<sup>-9</sup> m<sup>3</sup>/mol",
    "resistivity": "2.8 &middot; 10<sup>-7</sup> m\u03A9",
    "superconducting_point": "----",
    "lattice_structure": "Ytterbium/Cubic-face-centered.svg.png",
    "crystal_structure": "Face-centered cubic",
    "grid": "a=5.490 \u212B",
    "attitude": "----",
    "debye_temperature": "----",
    "space_group_name": "Fm_3m",
    "space_group_number": "225",
    "CAS_number": "CAS7440-64-4",
    "CID_number": "CID23992",
    "RTEC_number": "RTECSZG1925000",
    "brinell_hardness": "340-440 MPa",
    "mohs_hardness": "----",
    "vickers_hardness": "205-250 MPa",
    "bulk_modulus": "30.5 GPa",
    "Young_modulus": "23.9 GPa",
    "liquid_density": "3.21 (g/cm<sup>3</sup>)",
    "molar_volume": "24.8 (cm<sup>3</sup>/mol)",
    "poisson_ratio": "0.21 &micro;",
    "shear_modulus": "9.9 GPa",
    "sound_speed": "1590 m/s",
    "refractive_index": "----",
    "thermal_conductivity": "39 W/mK",
    "electronegative": "Pauling Scale ----",
    "electron_affinity": "50 KJ/mol",
    "radioactivity": "no",
    "half_life": "\u221E",
    "life_time": "\u221E",
    "barn": "35 b",
    "hazard_block": [
        {
            "red": "-"
        },
        {
            "yellow": "-"
        },
        {
            "blue": "-"
        },
        {
            "white": "-"
        }
    ],
    "fire_hazard": "----",
    "health_hazard":"----",
    "reactivity": "----",
    "specific": "----",
    "universe_contains": "---- %",
    "sun_contains": "1 &middot; 10<sup>-7</sup> %",
    "oceans_contains": "8 &middot; 10<sup>-11</sup> %",
    "human_body_contains": "---- %",
    "earth_crust_contains": "0.00028 %",
    "meteorites_contains": "0.000018 %",
    "start_isotope_number": 148,
    "stop_isotope_number": 151,
    "half_life_number": ["250 ms", "700 ms", "700 ms", "1.6 s"],
    "iso_weight": [147.96742, 148.96404, 149.95842, 150.95540]
}