{
    "ytterbium_Yb": {
        "allotropes": NaN,
        "alternative_name": NaN,
        "alternative_names": NaN,
        "appearance": "silvery white; with a pale yellow tint",
        "at_t_(k)": 736.0,
        "atomic_number": 70,
        "atomic_radius": "empirical: 176 pm",
        "atomic_weight": "173.045(10)",
        "band_gap": NaN,
        "boiling_point": "1469 K (1196 \u00b0C, 2185 \u00b0F)",
        "brinell_hardness": "340\u2013440 MPa",
        "bulk_modulus": "? form: 30.5 GPa",
        "cas_number": "7440-64-4",
        "color": NaN,
        "covalent_radius": "187\u00b18 pm",
        "critical_point": NaN,
        "crystal_structure": "face-centered cubic (fcc)",
        "curie_point": NaN,
        "density_at_stp": NaN,
        "density_near_rt": "6.90 g/cm3",
        "density_when_liquid_at_mp": NaN,
        "discovery": "Jean Charles Galissard de Marignac (1878)",
        "discovery_and_first_isolation": NaN,
        "electrical_resistivity": "?, poly: 0.250 \u00b5?\u00b7m (at r.t.)",
        "electron_configuration": "[Xe] 4f14 6s2",
        "electronegativity": "Pauling scale: 1.1 (?)",
        "element_category": "lanthanide",
        "first_isolation": "Georges Urbain (1907)",
        "group_block": "group n/a, f-block",
        "heat_of_fusion": "7.66 kJ/mol",
        "heat_of_vaporisation": NaN,
        "heat_of_vaporization": "129 kJ/mol",
        "ionisation_energies": NaN,
        "ionization_energies": "1st: 603.4 kJ/mol, 2nd: 1174.8 kJ/mol, 3rd: 2417 kJ/mol",
        "iso": "iso, NA, half-life, DM, DE (MeV), DP, 166Yb, syn, 56.7 h, ?, 0.304, 166Tm, 168Yb, 0.126%, 168Yb is stable with 98 neutrons, 169Yb, syn, 32.026 d, ?, 0.909, 169Tm, 170Yb, 3.023%, 170Yb is stable with 100 neutrons, 171Yb, 14.216%, 171Yb is stable with 101 neutrons, 172Yb, 21.754%, 172Yb is stable with 102 neutrons, 173Yb, 16.098%, 173Yb is stable with 103 neutrons, 174Yb, 31.896%, 174Yb is stable with 104 neutrons, 175Yb, syn, 4.185 d, ??, 0.470, 175Lu, 176Yb, 12.887%, 176Yb is stable with 106 neutrons, 177Yb, syn, 1.911 h, ??, 1.399, 177Lu",
        "magnetic_ordering": "paramagnetic",
        "melting_point": "1097 K (824 \u00b0C, 1515 \u00b0F)",
        "mohs_hardness": NaN,
        "molar_heat_capacity": "26.74 J/(mol\u00b7K)",
        "molar_volume": NaN,
        "name": "Ytterbium",
        "named_by": NaN,
        "naming": "after Ytterby (Sweden), where it was mined",
        "oxidation_states": "3, 2, 1 (a basic oxide)",
        "p_(pa)": "vapor pressure, P (Pa), 1, 10, 100, 1 k, 10 k, 100 k, at T (K), 736, 813, 910, 1047, (1266), (1465)",
        "per_shell": "2, 8, 18, 32, 8, 2",
        "period": 6,
        "phase": "solid",
        "poisson_ratio": "? form: 0.207",
        "prediction": NaN,
        "pronunciation": "/??t??rbi?m/, i-TUR-bee-?m",
        "proposed_formal_name": NaN,
        "recognised_as_an_element_by": NaN,
        "recognized_as_a_distinct_element_by": NaN,
        "recognized_as_a_unique_metal_by": NaN,
        "recognized_as_an_element_by": NaN,
        "shear_modulus": "? form: 9.9 GPa",
        "speed_of_sound": NaN,
        "speed_of_sound_thin_rod": "1590 m/s (at 20 \u00b0C)",
        "sublimation_point": NaN,
        "symbol": "Yb",
        "tensile_strength": NaN,
        "thermal_conductivity": "38.5 W/(m\u00b7K)",
        "thermal_diffusivity": NaN,
        "thermal_expansion": "?, poly: 26.3 \u00b5m/(m\u00b7K) (r.t.)",
        "triple_point": NaN,
        "van_der_waals_radius": NaN,
        "vickers_hardness": "205\u2013250 MPa",
        "when_liquid_at_bp": NaN,
        "when_liquid_at_mp": "6.21 g/cm3",
        "youngs_modulus": "? form: 23.9 GPa"
    }
}