{
    "copper_Cu": {
        "allotropes": NaN,
        "alternative_name": NaN,
        "alternative_names": NaN,
        "appearance": "red-orange metallic luster",
        "at_t_(k)": 1509.0,
        "atomic_number": 29,
        "atomic_radius": "empirical: 128 pm",
        "atomic_weight": "63.546(3)",
        "band_gap": NaN,
        "boiling_point": "2835 K (2562 \u00b0C, 4643 \u00b0F)",
        "brinell_hardness": "235\u2013878 MPa",
        "bulk_modulus": "140 GPa",
        "cas_number": "7440-50-8",
        "color": NaN,
        "covalent_radius": "132\u00b14 pm",
        "critical_point": NaN,
        "crystal_structure": "face-centered cubic (fcc)",
        "curie_point": NaN,
        "density_at_stp": NaN,
        "density_near_rt": "8.96 g/cm3",
        "density_when_liquid_at_mp": NaN,
        "discovery": "Middle East (9000 BCE)",
        "discovery_and_first_isolation": NaN,
        "electrical_resistivity": "16.78 n?\u00b7m (at 20 \u00b0C)",
        "electron_configuration": "[Ar] 3d10 4s1",
        "electronegativity": "Pauling scale: 1.90",
        "element_category": "transition metal",
        "first_isolation": NaN,
        "group_block": "group 11, d-block",
        "heat_of_fusion": "13.26 kJ/mol",
        "heat_of_vaporisation": NaN,
        "heat_of_vaporization": "300.4 kJ/mol",
        "ionisation_energies": NaN,
        "ionization_energies": "1st: 745.5 kJ/mol, 2nd: 1957.9 kJ/mol, 3rd: 3555 kJ/mol, (more)",
        "iso": "iso, NA, half-life, DM, DE (MeV), DP, 63Cu, 69.15%, 63Cu is stable with 34 neutrons, 64Cu, syn, 12.700 h, ?, \u2013, 64Ni, ??, \u2013, 64Zn, 65Cu, 30.85%, 65Cu is stable with 36 neutrons, 67Cu, syn, 61.83 h, ??, \u2013, 67Zn",
        "magnetic_ordering": "diamagnetic",
        "melting_point": "1357.77 K (1084.62 \u00b0C, 1984.32 \u00b0F)",
        "mohs_hardness": "3",
        "molar_heat_capacity": "24.440 J/(mol\u00b7K)",
        "molar_volume": NaN,
        "name": "Copper",
        "named_by": NaN,
        "naming": "after Cyprus, principal mining place in Roman era (Cyprium)",
        "oxidation_states": "?2, +1, +2, +3, +4 (a mildly basic oxide)",
        "p_(pa)": "vapor pressure, P (Pa), 1, 10, 100, 1 k, 10 k, 100 k, at T (K), 1509, 1661, 1850, 2089, 2404, 2834",
        "per_shell": "2, 8, 18, 1",
        "period": 4,
        "phase": "solid",
        "poisson_ratio": "0.34",
        "prediction": NaN,
        "pronunciation": "/?k?p?r/, KOP-?r",
        "proposed_formal_name": NaN,
        "recognised_as_an_element_by": NaN,
        "recognized_as_a_distinct_element_by": NaN,
        "recognized_as_a_unique_metal_by": NaN,
        "recognized_as_an_element_by": NaN,
        "shear_modulus": "48 GPa",
        "speed_of_sound": NaN,
        "speed_of_sound_thin_rod": "(annealed), 3810 m/s (at r.t.)",
        "sublimation_point": NaN,
        "symbol": "Cu",
        "tensile_strength": NaN,
        "thermal_conductivity": "401 W/(m\u00b7K)",
        "thermal_diffusivity": NaN,
        "thermal_expansion": "16.5 \u00b5m/(m\u00b7K) (at 25 \u00b0C)",
        "triple_point": NaN,
        "van_der_waals_radius": "140 pm",
        "vickers_hardness": "343\u2013369 MPa",
        "when_liquid_at_bp": NaN,
        "when_liquid_at_mp": "8.02 g/cm3",
        "youngs_modulus": "110\u2013128 GPa"
    }
}