var element_data = {
    "wiki": "https://en.wikipedia.org/wiki/Copper",
    "video": "https://www.youtube.com/watch?v=kop1sWzTK-I&list=PL7A1F4CF36C085DE1&index=29",
    "image": "Copper/copper.jpg",
    "species": "ALKALINE EARTH METALS",
    "symbol": "Cu",
    "latin_name": "Cuprum",
    "english_name": "Copper",
    "year_discovered": "Ancient India",
    "discovered_by": "----",
    "Electron_shell": [
        {
            "K": 2
        },
        {
            "L": 8
        },
        {
            "M": 18
        },
        {
            "N": 1
        },
        {
            "O": 0
        },
        {
            "P": 0
        },
        {
            "Q": 0
        },
        {
            "R": 0
        }
    ],
    "epn_no": [
        {
            "electrons": 29,
        },
        {
            "protons": 29,
        },
        {
            "neutrons": 35
        }
    ],
    "atomic_number": 29,
    "atomic_weight": "63.546 (g/mol)",
    "density": "8.92 (g/cm³)",
    "melting_point": "1084.62 °C = 1984.32 °F = 1357.77 K",
    "boiling_point": "2562 °C = 4643.60 °F = 2835.15 K",
    "valence_electrons": "2",
    "period": 4,
    "group": "I B",
    "block": "d-block",
    "emission_spectrum": "Copper/Cu.gif",
    "phase": "Solid",
    "phase_icon": "----",
    "fusion_heat": "13.1 (kJ &middot K)",
    "specific_heat": "384.3 J/(kg &middot; K)",
    "thermal_expansion": "16.5 &middot; 10<sup>-6</sup>°C<sup>-1</sup>)",
    "vaporization_heat": "300 kJ &middot; mol",
    "electron_configuration": "[Ar] 3d<sup>10</sup>4s<sup>1</sup>",
    "oxidation_state": "-2, +1, +2, +3, +4",
    "ion_charge": "Cu<sup>+</sup>, Cu<sup>2+</sup>",
    "ionization_potential": "7.69 eV",
    "atomic_radius": "128 (pm)",
    "covalent_radius": "138 (pm)",
    "van_der_waals_radius": "140 (pm)",
    "electrical_conductivity": "5.9 &middot; 10<sup>7</sup>",
    "electrical_type": "Conductor", 
    "magnetic_type": "Diamagnetic",
    "volume_susceptibility": "-0.00000963",
    "mass_susceptibility": "-0.00000000108",
    "molar_susceptibility": "-6.86 &middot; 10<sup>-11</sup> m<sup>3</sup>/mol",
    "resistivity": "1.68 &middot; 10<sup>-11</sup> m\u03A9",
    "superconducting_point": "----",
    "lattice_structure": "Copper/Cubic-face-centered.svg.png",
    "crystal_structure": "Face-centered cubic",
    "grid": "a=3.615 \u212B;",
    "attitude": "----",
    "debye_temperature": "41.85 °C = 107.33 °F = 315 K",
    "space_group_name": "Fm_3m",
    "space_group_number": "225",
    "CAS_number": "CAS7440-50-8",
    "CID_number": "CID23978",
    "RTEC_number": "RTECSGL5325000",
    "brinell_hardness": "235-878 MPa",
    "mohs_hardness": "3",
    "vickers_hardness": "243-369 MPa",
    "bulk_modulus": "140 GPa",
    "Young_modulus": "128 GPa",
    "liquid_density": "8.02 (g/cm<sup>3</sup>)",
    "molar_volume": "9.2 (cm<sup>3</sup>/mol)",
    "poisson_ratio": "0.34 &micro;",
    "shear_modulus": "48 GPa",
    "sound_speed": "3570 m/s",
    "refractive_index": "----",
    "thermal_conductivity": "400 W/mK",
    "electronegative": "Pauling Scale 1.9",
    "electron_affinity": "118.4 KJ/mol",
    "radioactivity": "no",
    "half_life": "\u221E",
    "life_time": "\u221E",
    "barn": "3.78 b",
    "hazard_block": [
        {
            "red": "1"
        },
        {
            "yellow": "0"
        },
        {
            "blue": "1"
        },
        {
            "white": "-"
        }
    ],
    "fire_hazard": "Above 93.3 °C",
    "health_hazard":"Slightly harzardous",
    "reactivity": "Stable",
    "specific": "----",
    "universe_contains": "6 &middot; 10<sup>-6</sup> %",
    "sun_contains": "0.00007 %",
    "oceans_contains": "3 &middot; 10<sup>-7</sup> %",
    "human_body_contains": "0.0001 %",
    "earth_crust_contains": "0.0068 %",
    "meteorites_contains": "0.011 %",
    "start_isotope_number": 52,
    "stop_isotope_number": 61,
    "half_life_number": ["-", "300 ns", "75 ns", "40 ms", "93 ms", "196.6 ms", "3.204 s", "81.5 s", "23.7 m", "3.333 hours"],
    "iso_weight": [51.99, 52.97571, 54.966, 55.3958, 56.949, 57.944, 58.939, 59.937, 60.933]
}