{
    "cadmium_Cd": {
        "allotropes": NaN,
        "alternative_name": NaN,
        "alternative_names": NaN,
        "appearance": "silvery bluish-gray metallic",
        "at_t_(k)": 530.0,
        "atomic_number": 48,
        "atomic_radius": "empirical: 151 pm",
        "atomic_weight": "112.414(4)",
        "band_gap": NaN,
        "boiling_point": "1040 K (767 \u00b0C, 1413 \u00b0F)",
        "brinell_hardness": "203\u2013220 MPa",
        "bulk_modulus": "42 GPa",
        "cas_number": "7440-43-9",
        "color": NaN,
        "covalent_radius": "144\u00b19 pm",
        "critical_point": NaN,
        "crystal_structure": "hexagonal close-packed (hcp)",
        "curie_point": NaN,
        "density_at_stp": NaN,
        "density_near_rt": "8.65 g/cm3",
        "density_when_liquid_at_mp": NaN,
        "discovery": NaN,
        "discovery_and_first_isolation": "Karl Samuel Leberecht Hermann and Friedrich Stromeyer (1817)",
        "electrical_resistivity": "72.7 n?\u00b7m (at 22 \u00b0C)",
        "electron_configuration": "[Kr] 4d10 5s2",
        "electronegativity": "Pauling scale: 1.69",
        "element_category": "transition metal, alternatively considered a post-transition metal",
        "first_isolation": NaN,
        "group_block": "group 12, d-block",
        "heat_of_fusion": "6.21 kJ/mol",
        "heat_of_vaporisation": NaN,
        "heat_of_vaporization": "99.87 kJ/mol",
        "ionisation_energies": NaN,
        "ionization_energies": "1st: 867.8 kJ/mol, 2nd: 1631.4 kJ/mol, 3rd: 3616 kJ/mol",
        "iso": "iso, NA, half-life, DM, DE (MeV), DP, 106Cd, 1.25%, 106Cd is stable with 58 neutrons, 107Cd, syn, 6.5 h, ?, 1.417, 107Ag, 108Cd, 0.89%, 108Cd is stable with 60 neutrons, 109Cd, syn, 462.6 d, ?, 0.214, 109Ag, 110Cd, 12.47%, 110Cd is stable with 62 neutrons, 111Cd, 12.80%, 111Cd is stable with 63 neutrons, 112Cd, 24.11%, 112Cd is stable with 64 neutrons, 113Cd, 12.23%, 7.7\u00d71015 y, ??, 0.316, 113In, 113mCd, syn, 14.1 y, ??, 0.580, 113In, IT, 0.264, 113Cd, 114Cd, 28.75%, 114Cd is stable with 66 neutrons, 115Cd, syn, 53.46 h, ??, 1.446, 115In, 116Cd, 7.51%, 3.1\u00d71019 y, ????, 2.809, 116Sn",
        "magnetic_ordering": "diamagnetic",
        "melting_point": "594.22 K (321.07 \u00b0C, 609.93 \u00b0F)",
        "mohs_hardness": "2",
        "molar_heat_capacity": "26.020 J/(mol\u00b7K)",
        "molar_volume": NaN,
        "name": "Cadmium",
        "named_by": "Friedrich Stromeyer (1817)",
        "naming": NaN,
        "oxidation_states": "2, 1, ?2 (a mildly basic oxide)",
        "p_(pa)": "vapor pressure, P (Pa), 1, 10, 100, 1 k, 10 k, 100 k, at T (K), 530, 583, 654, 745, 867, 1040",
        "per_shell": "2, 8, 18, 18, 2",
        "period": 5,
        "phase": "solid",
        "poisson_ratio": "0.3",
        "prediction": NaN,
        "pronunciation": "/?k\u00e6dmi?m/, KAD-mee-?m",
        "proposed_formal_name": NaN,
        "recognised_as_an_element_by": NaN,
        "recognized_as_a_distinct_element_by": NaN,
        "recognized_as_a_unique_metal_by": NaN,
        "recognized_as_an_element_by": NaN,
        "shear_modulus": "19 GPa",
        "speed_of_sound": NaN,
        "speed_of_sound_thin_rod": "2310 m/s (at 20 \u00b0C)",
        "sublimation_point": NaN,
        "symbol": "Cd",
        "tensile_strength": NaN,
        "thermal_conductivity": "96.6 W/(m\u00b7K)",
        "thermal_diffusivity": NaN,
        "thermal_expansion": "30.8 \u00b5m/(m\u00b7K) (at 25 \u00b0C)",
        "triple_point": NaN,
        "van_der_waals_radius": "158 pm",
        "vickers_hardness": NaN,
        "when_liquid_at_bp": NaN,
        "when_liquid_at_mp": "7.996 g/cm3",
        "youngs_modulus": "50 GPa"
    }
}