var element_data = {
    "wiki": "https://en.wikipedia.org/wiki/Cadmium",
    "video": "https://www.youtube.com/watch?v=boRius1DYdQ&list=PL7A1F4CF36C085DE1&index=48",
    "image": "Cadmium/cadmium.jpg",
    "species": "TRANSITION METALS",
    "symbol": "Cd",
    "latin_name": "Cadmium",
    "english_name": "Cadmium",
    "year_discovered": "1817",
    "discovered_by": "Friedrich Stromeyer",
    "Electron_shell": [
        {
            "K": 2
        },
        {
            "L": 8
        },
        {
            "M": 18
        },
        {
            "N": 18
        },
        {
            "O": 2
        },
        {
            "P": 0
        },
        {
            "Q": 0
        },
        {
            "R": 0
        }
    ],
    "epn_no": [
        {
            "electrons": 48,
        },
        {
            "protons": 56,
        },
        {
            "neutrons": 81
        }
    ],
    "atomic_number": 48,
    "atomic_weight": "112.411 (g/mol)",
    "density": "8.64 (g/cm³)",
    "melting_point": "319.1 °C = 606.38 °F = 592.25 K",
    "boiling_point": "766.8 °C = 1412.24 °F = 1039.95 K",
    "valence_electrons": "2",
    "period": 5,
    "group": "II A",
    "block": "d-block",
    "emission_spectrum": "Cadmium/Cd.gif",
    "phase": "Solid",
    "phase_icon": "----",
    "fusion_heat": "6.3 (kJ &middot K)",
    "specific_heat": "240 J/(kg &middot; K)",
    "thermal_expansion": "30.8 &middot; 10<sup>-6</sup>°C<sup>-1</sup>)",
    "vaporization_heat": "100 kJ &middot; mol",
    "electron_configuration": "[Kr] 4d<sup>10</sup>5s<sup>2</sup>",
    "oxidation_state": "-2, +1, +2",
    "ion_charge": "Cd<sup>2+</sup>",
    "ionization_potential": "8.95 ev",
    "atomic_radius": "154 (pm)",
    "covalent_radius": "148 (pm)",
    "van_der_waals_radius": "158 (pm)",
    "electrical_conductivity": "1.4 &middot; 10<sup>7</sup>",
    "electrical_type": "Conductor", 
    "magnetic_type": "Diamagnetic",
    "volume_susceptibility": "-0.0000199",
    "mass_susceptibility": "-0.0000000023",
    "molar_susceptibility": "-2.59 &middot; 10<sup>-10</sup> m<sup>3</sup>/mol",
    "resistivity": "7 &middot; 10<sup>-8</sup> m\u03A9",
    "superconducting_point": "-272.63 °C = -458.74 °F = 0.517 K",
    "lattice_structure": "Cadmium/Hexagonal_close_packed.svg.png",
    "crystal_structure": "Hexagonal close-packed",
    "grid": "a=2.979 \u212B;; c=5.618 \u212B;",
    "attitude": "----",
    "debye_temperature": "-64.15 °C = -83.47 °F = 209 K",
    "space_group_name": "R_3m",
    "space_group_number": "194",
    "CAS_number": "CAS7440-43-9",
    "CID_number": "CID23973",
    "RTEC_number": "RTECSEU9800000",
    "brinell_hardness": "203-220 MPa",
    "mohs_hardness": "2",
    "vickers_hardness": "----",
    "bulk_modulus": "42 GPa",
    "Young_modulus": "50 GPa",
    "liquid_density": "7.996 (g/cm<sup>3</sup>)",
    "molar_volume": "13.1 (cm<sup>3</sup>/mol)",
    "poisson_ratio": "0.3 &micro;",
    "shear_modulus": "19 GPa",
    "sound_speed": "2310 m/s",
    "refractive_index": "----",
    "thermal_conductivity": "97 W/mK",
    "electronegative": "Pauling Scale 1.69",
    "electron_affinity": "0 KJ/mol",
    "radioactivity": "no",
    "half_life": "\u221E",
    "life_time": "\u221E",
    "barn": "2450 b",
    "hazard_block": [
        {
            "red": "2"
        },
        {
            "yellow": "0"
        },
        {
            "blue": "2"
        },
        {
            "white": "-"
        }
    ],
    "fire_hazard": "Below 93.3 °C",
    "health_hazard":"Hazardous",
    "reactivity": "Stable",
    "specific": "----",
    "universe_contains": "2 &middot; 10<sup>-7</sup> %",
    "sun_contains": "6 &middot; 10<sup>-7</sup> %",
    "oceans_contains": "5 &middot; 10<sup>-9</sup> %",
    "human_body_contains": "7 &middot; 10<sup>-5</sup> %",
    "earth_crust_contains": "0.000015 %",
    "meteorites_contains": "0.000044 %",
    "start_isotope_number": 95,
    "stop_isotope_number": 98,
    "half_life_number": ["5 ms", "1 s", "2.8 s", "9.2 s"],
    "iso_weight": [94.94987, 95.93977, 96.93494, 96.93494, 97.92740]
}