{
    "einsteinium_Es": {
        "allotropes": NaN,
        "alternative_name": NaN,
        "alternative_names": NaN,
        "appearance": "silvery; glows blue in the dark",
        "at_t_(k)": NaN,
        "atomic_number": 99,
        "atomic_radius": NaN,
        "atomic_weight": "(252)",
        "band_gap": NaN,
        "boiling_point": "1269 K (996 \u00b0C, 1825 \u00b0F) (estimated)",
        "brinell_hardness": NaN,
        "bulk_modulus": NaN,
        "cas_number": "7429-92-7",
        "color": NaN,
        "covalent_radius": NaN,
        "critical_point": NaN,
        "crystal_structure": "face-centered cubic (fcc)",
        "curie_point": NaN,
        "density_at_stp": NaN,
        "density_near_rt": "8.84 g/cm3",
        "density_when_liquid_at_mp": NaN,
        "discovery": "Lawrence Berkeley National Laboratory (1952)",
        "discovery_and_first_isolation": NaN,
        "electrical_resistivity": NaN,
        "electron_configuration": "[Rn] 5f11 7s2",
        "electronegativity": "Pauling scale: 1.3",
        "element_category": "actinide",
        "first_isolation": NaN,
        "group_block": "group n/a, f-block",
        "heat_of_fusion": NaN,
        "heat_of_vaporisation": NaN,
        "heat_of_vaporization": NaN,
        "ionisation_energies": NaN,
        "ionization_energies": "1st: 619 kJ/mol",
        "iso": "iso, NA, half-life, DM, DE (MeV), DP, 252Es, syn, 471.7 d, ?, 6.760, 248Bk, ?, 1.260, 252Cf, ??, 0.480, 252Fm, 253Es, syn, 20.47 d, SF, \u2013, \u2013, ?, 6.739, 249Bk, 254Es, syn, 275.7 d, ?, 0.654, 254Cf, ??, 1.090, 254Fm, ?, 6.628, 250Bk, 255Es, syn, 39.8 d, ??, 0.288, 255Fm, ?, 6.436, 251Bk, SF, \u2013, \u2013",
        "magnetic_ordering": "paramagnetic",
        "melting_point": "1133 K (860 \u00b0C, 1580 \u00b0F)",
        "mohs_hardness": NaN,
        "molar_heat_capacity": NaN,
        "molar_volume": NaN,
        "name": "Einsteinium",
        "named_by": NaN,
        "naming": "after Albert Einstein",
        "oxidation_states": "2, 3, 4",
        "p_(pa)": NaN,
        "per_shell": "2, 8, 18, 32, 29, 8, 2",
        "period": 7,
        "phase": "solid",
        "poisson_ratio": NaN,
        "prediction": NaN,
        "pronunciation": "/a?n?sta?ni?m/, eyen-STY-nee-?m",
        "proposed_formal_name": NaN,
        "recognised_as_an_element_by": NaN,
        "recognized_as_a_distinct_element_by": NaN,
        "recognized_as_a_unique_metal_by": NaN,
        "recognized_as_an_element_by": NaN,
        "shear_modulus": NaN,
        "speed_of_sound": NaN,
        "speed_of_sound_thin_rod": NaN,
        "sublimation_point": NaN,
        "symbol": "Es",
        "tensile_strength": NaN,
        "thermal_conductivity": NaN,
        "thermal_diffusivity": NaN,
        "thermal_expansion": NaN,
        "triple_point": NaN,
        "van_der_waals_radius": NaN,
        "vickers_hardness": NaN,
        "when_liquid_at_bp": NaN,
        "when_liquid_at_mp": NaN,
        "youngs_modulus": NaN
    }
}