var element_data = {
    "wiki": "https://en.wikipedia.org/wiki/Einsteinium",
    "video": "https://www.youtube.com/watch?v=UdJeLlwrVUI&list=PL7A1F4CF36C085DE1&index=99",
    "image": "Einsteinium/Einsteinium.jpg",
    "species": "ALKALINE EARTH METALS",
    "symbol": "Es",
    "latin_name": "Einsteinium",
    "english_name": "Einsteinium",
    "year_discovered": "1952",
    "discovered_by": "Albert Ghiorso",
    "Electron_shell": [
        {
            "K": 2
        },
        {
            "L": 8
        },
        {
            "M": 18
        },
        {
            "N": 32
        },
        {
            "O": 29
        },
        {
            "P": 8
        },
        {
            "Q": 2
        },
        {
            "R": 0
        }
    ],
    "epn_no": [
        {
            "electrons": 99,
        },
        {
            "protons": 99,
        },
        {
            "neutrons": 153
        }
    ],
    "atomic_number": 99,
    "atomic_weight": "252.0829 (g/mol)",
    "density": "13.5 (g/cm³)",
    "melting_point": "860 °C = 1580.00 °F = 1133.15 K",
    "boiling_point": "----",
    "valence_electrons": "4",
    "period": 7,
    "group": "----",
    "block": "f-block",
    "emission_spectrum": "Einsteinium/Ba.gif",
    "phase": "Solid",
    "phase_icon": "----",
    "fusion_heat": "----(kJ &middot K)",
    "specific_heat": "---- J/(kg &middot; K)",
    "thermal_expansion": "----°C<sup>-1</sup>)",
    "vaporization_heat": "---- kJ &middot; mol",
    "electron_configuration": "[Rn] 5f<sup>11</sup>7s<sup>2</sup>",
    "oxidation_state": "+2, +3",
    "ion_charge": "Es<sup>3+</sup>",
    "ionization_potential": "---- eV",
    "atomic_radius": "292 (pm)",
    "covalent_radius": "---- (pm)",
    "van_der_waals_radius": "---- (pm)",
    "electrical_conductivity": "----",
    "electrical_type": "----", 
    "magnetic_type": "----",
    "volume_susceptibility": "----",
    "mass_susceptibility": "----",
    "molar_susceptibility": "---- m<sup>3</sup>/mol",
    "resistivity": "---- m\u03A9",
    "superconducting_point": "----",
    "lattice_structure": "Einsteinium/Cubic-face-centered.svg.png",
    "crystal_structure": "Face-centered cubic",
    "grid": "----",
    "attitude": "----",
    "debye_temperature": "----",
    "space_group_name": "----",
    "space_group_number": "----",
    "CAS_number": "CAS7429-92-7",
    "CID_number": "----",
    "RTEC_number": "----",
    "brinell_hardness": "---- MPa",
    "mohs_hardness": "----",
    "vickers_hardness": "----",
    "bulk_modulus": "---- GPa",
    "Young_modulus": "---- GPa",
    "liquid_density": "---- (g/cm<sup>3</sup>)",
    "molar_volume": "---- (cm<sup>3</sup>/mol)",
    "poisson_ratio": "----",
    "shear_modulus": "---- GPa",
    "sound_speed": "---- m/s",
    "refractive_index": "----",
    "thermal_conductivity": "---- W/mK",
    "electronegative": "Pauling Scale 1.3",
    "electron_affinity": "---- KJ/mol",
    "radioactivity": "yes",
    "half_life": "1.2 years",
    "life_time": "1.8 years",
    "barn": "160 b",
    "hazard_block": [
        {
            "red": "-"
        },
        {
            "yellow": "-"
        },
        {
            "blue": "-"
        },
        {
            "white": "-"
        }
    ],
    "fire_hazard": "----",
    "health_hazard":"----",
    "reactivity": "----",
    "specific": "----",
    "universe_contains": "---- %",
    "sun_contains": "---- %",
    "oceans_contains": "---- %",
    "human_body_contains": "---- %",
    "earth_crust_contains": "---- %",
    "meteorites_contains": "---- %",
    "start_isotope_number": 240,
    "stop_isotope_number": 245,
    "half_life_number": ["1 ms", "10 ms", "13.5 ms", "21 ms", "37 ms", "1.1 m"],
    "iso_weight": [240.06892, 241.06854, 242.06975, 243.06955, 244.07088, 254.07132]
}