{
    "meitnerium_Mt": {
        "allotropes": NaN,
        "alternative_name": NaN,
        "alternative_names": NaN,
        "appearance": NaN,
        "at_t_(k)": NaN,
        "atomic_number": 109,
        "atomic_radius": "empirical: 128 pm (predicted)",
        "atomic_weight": "[278]",
        "band_gap": NaN,
        "boiling_point": NaN,
        "brinell_hardness": NaN,
        "bulk_modulus": NaN,
        "cas_number": "54038-01-6",
        "color": NaN,
        "covalent_radius": "129 pm (estimated)",
        "critical_point": NaN,
        "crystal_structure": "face-centered cubic (fcc), (predicted)",
        "curie_point": NaN,
        "density_at_stp": NaN,
        "density_near_rt": "37.4 g/cm3 (predicted)",
        "density_when_liquid_at_mp": NaN,
        "discovery": "Gesellschaft f\u00fcr Schwerionenforschung (1982)",
        "discovery_and_first_isolation": NaN,
        "electrical_resistivity": NaN,
        "electron_configuration": "[Rn] 5f14 6d7 7s2 (calculated)",
        "electronegativity": NaN,
        "element_category": "unknown, but probably a transition metal",
        "first_isolation": NaN,
        "group_block": "group 9, d-block",
        "heat_of_fusion": NaN,
        "heat_of_vaporisation": NaN,
        "heat_of_vaporization": NaN,
        "ionisation_energies": NaN,
        "ionization_energies": "1st: 800.8 kJ/mol, 2nd: 1823.6 kJ/mol, 3rd: 2904.2 kJ/mol, (more) (all estimated)",
        "iso": "iso, NA, half-life, DM, DE (MeV), DP, 278Mt, syn, 7.6 s, ?, 9.6, 274Bh, 276Mt, syn, 0.72 s, ?, 9.71, 272Bh, 274Mt, syn, 0.44 s, ?, 9.76, 270Bh, 270mMt ?, syn, 1.1 s, ?, 266Bh",
        "magnetic_ordering": "paramagnetic (predicted)",
        "melting_point": NaN,
        "mohs_hardness": NaN,
        "molar_heat_capacity": NaN,
        "molar_volume": NaN,
        "name": "Meitnerium",
        "named_by": NaN,
        "naming": "after Lise Meitner",
        "oxidation_states": "9, 8, 6, 4, 3, 1 (predicted)",
        "p_(pa)": NaN,
        "per_shell": "2, 8, 18, 32, 32, 15, 2 (predicted)",
        "period": 7,
        "phase": "solid (predicted)",
        "poisson_ratio": NaN,
        "prediction": NaN,
        "pronunciation": "/ma?t?n??ri?m/ or /?ma?tn?ri?m/, myt-NEER-ee-?m or MYT-n?r-ee-?m",
        "proposed_formal_name": NaN,
        "recognised_as_an_element_by": NaN,
        "recognized_as_a_distinct_element_by": NaN,
        "recognized_as_a_unique_metal_by": NaN,
        "recognized_as_an_element_by": NaN,
        "shear_modulus": NaN,
        "speed_of_sound": NaN,
        "speed_of_sound_thin_rod": NaN,
        "sublimation_point": NaN,
        "symbol": "Mt",
        "tensile_strength": NaN,
        "thermal_conductivity": NaN,
        "thermal_diffusivity": NaN,
        "thermal_expansion": NaN,
        "triple_point": NaN,
        "van_der_waals_radius": NaN,
        "vickers_hardness": NaN,
        "when_liquid_at_bp": NaN,
        "when_liquid_at_mp": NaN,
        "youngs_modulus": NaN
    }
}