{
    "chromium_Cr": {
        "allotropes": NaN,
        "alternative_name": NaN,
        "alternative_names": NaN,
        "appearance": "silvery metallic",
        "at_t_(k)": 1656.0,
        "atomic_number": 24,
        "atomic_radius": "empirical: 128 pm",
        "atomic_weight": "51.9961(6)",
        "band_gap": NaN,
        "boiling_point": "2944 K (2671 \u00b0C, 4840 \u00b0F)",
        "brinell_hardness": "687\u20136500 MPa",
        "bulk_modulus": "160 GPa",
        "cas_number": "7440-47-3",
        "color": NaN,
        "covalent_radius": "139\u00b15 pm",
        "critical_point": NaN,
        "crystal_structure": "body-centered cubic (bcc)",
        "curie_point": NaN,
        "density_at_stp": NaN,
        "density_near_rt": "7.19 g/cm3",
        "density_when_liquid_at_mp": NaN,
        "discovery": NaN,
        "discovery_and_first_isolation": "Louis Nicolas Vauquelin (1797, 1798)",
        "electrical_resistivity": "125 n?\u00b7m (at 20 \u00b0C)",
        "electron_configuration": "[Ar] 3d5 4s1",
        "electronegativity": "Pauling scale: 1.66",
        "element_category": "transition metal",
        "first_isolation": NaN,
        "group_block": "group 6, d-block",
        "heat_of_fusion": "21.0 kJ/mol",
        "heat_of_vaporisation": NaN,
        "heat_of_vaporization": "347 kJ/mol",
        "ionisation_energies": NaN,
        "ionization_energies": "1st: 652.9 kJ/mol, 2nd: 1590.6 kJ/mol, 3rd: 2987 kJ/mol, (more)",
        "iso": "iso, NA, half-life, DM, DE (MeV), DP, 50Cr, 4.345%, 50Cr is stable with 26 neutrons, 51Cr, syn, 27.7025 d, ?, \u2013, 51V, ?, 0.320, \u2013, 52Cr, 83.789%, 52Cr is stable with 28 neutrons, 53Cr, 9.501%, 53Cr is stable with 29 neutrons, 54Cr, 2.365%, 54Cr is stable with 30 neutrons",
        "magnetic_ordering": "antiferromagnetic (rather: SDW)",
        "melting_point": "2180 K (1907 \u00b0C, 3465 \u00b0F)",
        "mohs_hardness": NaN,
        "molar_heat_capacity": "23.35 J/(mol\u00b7K)",
        "molar_volume": NaN,
        "name": "Chromium",
        "named_by": NaN,
        "naming": NaN,
        "oxidation_states": "6, 5, 4, 3, 2, 1, ?1, ?2, ?4 (depending on the oxidation state, an acidic, basic, or amphoteric oxide)",
        "p_(pa)": "vapor pressure, P (Pa), 1, 10, 100, 1 k, 10 k, 100 k, at T (K), 1656, 1807, 1991, 2223, 2530, 2942",
        "per_shell": "2, 8, 13, 1",
        "period": 4,
        "phase": "solid",
        "poisson_ratio": "0.21",
        "prediction": NaN,
        "pronunciation": "/?kro?mi?m/, KROH-mee-?m",
        "proposed_formal_name": NaN,
        "recognised_as_an_element_by": NaN,
        "recognized_as_a_distinct_element_by": NaN,
        "recognized_as_a_unique_metal_by": NaN,
        "recognized_as_an_element_by": NaN,
        "shear_modulus": "115 GPa",
        "speed_of_sound": NaN,
        "speed_of_sound_thin_rod": "5940 m/s (at 20 \u00b0C)",
        "sublimation_point": NaN,
        "symbol": "Cr",
        "tensile_strength": NaN,
        "thermal_conductivity": "93.9 W/(m\u00b7K)",
        "thermal_diffusivity": NaN,
        "thermal_expansion": "4.9 \u00b5m/(m\u00b7K) (at 25 \u00b0C)",
        "triple_point": NaN,
        "van_der_waals_radius": NaN,
        "vickers_hardness": "1060 MPa",
        "when_liquid_at_bp": NaN,
        "when_liquid_at_mp": "6.3 g/cm3",
        "youngs_modulus": "279 GPa"
    }
}