{
    "iron_Fe": {
        "allotropes": NaN,
        "alternative_name": NaN,
        "alternative_names": NaN,
        "appearance": "lustrous metallic with a grayish tinge",
        "at_t_(k)": 1728.0,
        "atomic_number": 26,
        "atomic_radius": "empirical: 126 pm",
        "atomic_weight": "55.845(2)",
        "band_gap": NaN,
        "boiling_point": "3134 K (2862 \u00b0C, 5182 \u00b0F)",
        "brinell_hardness": "200\u20131180 MPa",
        "bulk_modulus": "170 GPa",
        "cas_number": "7439-89-6",
        "color": NaN,
        "covalent_radius": "Low spin: 132\u00b13 pm, High spin: 152\u00b16 pm",
        "critical_point": NaN,
        "crystal_structure": "face-centered cubic (fcc), between 1185\u20131667 K",
        "curie_point": "1043 K",
        "density_at_stp": NaN,
        "density_near_rt": "7.874 g/cm3",
        "density_when_liquid_at_mp": NaN,
        "discovery": "before 5000 BC",
        "discovery_and_first_isolation": NaN,
        "electrical_resistivity": "96.1 n?\u00b7m (at 20 \u00b0C)",
        "electron_configuration": "[Ar] 3d6 4s2",
        "electronegativity": "Pauling scale: 1.83",
        "element_category": "transition metal",
        "first_isolation": NaN,
        "group_block": "group 8, d-block",
        "heat_of_fusion": "13.81 kJ/mol",
        "heat_of_vaporisation": NaN,
        "heat_of_vaporization": "340 kJ/mol",
        "ionisation_energies": NaN,
        "ionization_energies": "1st: 762.5 kJ/mol, 2nd: 1561.9 kJ/mol, 3rd: 2957 kJ/mol, (more)",
        "iso": "iso, NA, half-life, DM, DE (MeV), DP, 54Fe, 5.85%, 54Fe is stable with 28 neutrons, 55Fe, syn, 2.73 y, ?, 0.231, 55Mn, 56Fe, 91.75%, 56Fe is stable with 30 neutrons, 57Fe, 2.12%, 57Fe is stable with 31 neutrons, 58Fe, 0.28%, 58Fe is stable with 32 neutrons, 59Fe, syn, 44.503 d, ??, 1.565, 59Co, 60Fe, syn, 2.6\u00d7106 y, ??, 3.978, 60Co",
        "magnetic_ordering": "ferromagnetic",
        "melting_point": "1811 K (1538 \u00b0C, 2800 \u00b0F)",
        "mohs_hardness": "4",
        "molar_heat_capacity": "25.10 J/(mol\u00b7K)",
        "molar_volume": NaN,
        "name": "Iron",
        "named_by": NaN,
        "naming": NaN,
        "oxidation_states": "?4, ?2, ?1, +1, +2, +3, +4, +5, +6 (an amphoteric oxide)",
        "p_(pa)": "vapor pressure, P (Pa), 1, 10, 100, 1 k, 10 k, 100 k, at T (K), 1728, 1890, 2091, 2346, 2679, 3132",
        "per_shell": "2, 8, 14, 2",
        "period": 4,
        "phase": "solid",
        "poisson_ratio": "0.29",
        "prediction": NaN,
        "pronunciation": "/?a?.?rn/, EYE-urn",
        "proposed_formal_name": NaN,
        "recognised_as_an_element_by": NaN,
        "recognized_as_a_distinct_element_by": NaN,
        "recognized_as_a_unique_metal_by": NaN,
        "recognized_as_an_element_by": NaN,
        "shear_modulus": "82 GPa",
        "speed_of_sound": NaN,
        "speed_of_sound_thin_rod": "5120 m/s (at r.t.) (electrolytic)",
        "sublimation_point": NaN,
        "symbol": "Fe",
        "tensile_strength": NaN,
        "thermal_conductivity": "80.4 W/(m\u00b7K)",
        "thermal_diffusivity": NaN,
        "thermal_expansion": "11.8 \u00b5m/(m\u00b7K) (at 25 \u00b0C)",
        "triple_point": NaN,
        "van_der_waals_radius": NaN,
        "vickers_hardness": "608 MPa",
        "when_liquid_at_bp": NaN,
        "when_liquid_at_mp": "6.98 g/cm3",
        "youngs_modulus": "211 GPa"
    }
}