{
    "seaborgium_Sg": {
        "allotropes": NaN,
        "alternative_name": NaN,
        "alternative_names": NaN,
        "appearance": NaN,
        "at_t_(k)": NaN,
        "atomic_number": 106,
        "atomic_radius": "empirical: 132 pm (predicted)",
        "atomic_weight": "[269]",
        "band_gap": NaN,
        "boiling_point": NaN,
        "brinell_hardness": NaN,
        "bulk_modulus": NaN,
        "cas_number": "54038-81-2",
        "color": NaN,
        "covalent_radius": "143 pm (estimated)",
        "critical_point": NaN,
        "crystal_structure": "body-centered cubic (bcc), (predicted)",
        "curie_point": NaN,
        "density_at_stp": NaN,
        "density_near_rt": "35.0 g/cm3 (predicted)",
        "density_when_liquid_at_mp": NaN,
        "discovery": "Lawrence Berkeley National Laboratory (1974)",
        "discovery_and_first_isolation": NaN,
        "electrical_resistivity": NaN,
        "electron_configuration": "[Rn] 5f14 6d4 7s2 ",
        "electronegativity": NaN,
        "element_category": "transition metal",
        "first_isolation": NaN,
        "group_block": "group 6, d-block",
        "heat_of_fusion": NaN,
        "heat_of_vaporisation": NaN,
        "heat_of_vaporization": NaN,
        "ionisation_energies": NaN,
        "ionization_energies": "1st: 752.6 kJ/mol, 2nd: 1732.9 kJ/mol, 3rd: 2483.5 kJ/mol, (more) (all but first estimated)",
        "iso": "iso\nNA\nhalf-life\nDM\nDE (MeV)\nDP\n\n\n271Sg\nsyn\n1.9 min\n67% ?\n8.54\n267Rf\n\n\n33% SF\n\n\n\n\n269Sg\nsyn\n3.1+3.7\n?1.1 min\n?\n8.50(6)\n265Rf\n\n\n267Sg\nsyn\n1.4 min\n17% ?\n8.20\n263Rf\n\n\n83% SF\n\n\n\n\n265mSg\nsyn\n16.2 s\n?\n8.70\n261mRf\n\n\n265Sg\nsyn\n8.9 s\n?\n8.90, 8.84, 8.76\n261Rf",
        "magnetic_ordering": NaN,
        "melting_point": NaN,
        "mohs_hardness": NaN,
        "molar_heat_capacity": NaN,
        "molar_volume": NaN,
        "name": "Seaborgium",
        "named_by": NaN,
        "naming": "after Glenn T. Seaborg",
        "oxidation_states": "6, (5), (4), (3), 0 (parenthesized oxidation states are predictions)",
        "p_(pa)": NaN,
        "per_shell": "2, 8, 18, 32, 32, 12, 2",
        "period": 7,
        "phase": "solid (predicted)",
        "poisson_ratio": NaN,
        "prediction": NaN,
        "pronunciation": "i/si??b??r?i?m/, see-BOR-gee-?m",
        "proposed_formal_name": NaN,
        "recognised_as_an_element_by": NaN,
        "recognized_as_a_distinct_element_by": NaN,
        "recognized_as_a_unique_metal_by": NaN,
        "recognized_as_an_element_by": NaN,
        "shear_modulus": NaN,
        "speed_of_sound": NaN,
        "speed_of_sound_thin_rod": NaN,
        "sublimation_point": NaN,
        "symbol": "Sg",
        "tensile_strength": NaN,
        "thermal_conductivity": NaN,
        "thermal_diffusivity": NaN,
        "thermal_expansion": NaN,
        "triple_point": NaN,
        "van_der_waals_radius": NaN,
        "vickers_hardness": NaN,
        "when_liquid_at_bp": NaN,
        "when_liquid_at_mp": NaN,
        "youngs_modulus": NaN
    }
}