{
    "phosphorus_P": {
        "allotropes": NaN,
        "alternative_name": NaN,
        "alternative_names": NaN,
        "appearance": "colourless, waxy white, yellow, scarlet, red, violet, black",
        "at_t_(k)": 455.0,
        "atomic_number": 15,
        "atomic_radius": NaN,
        "atomic_weight": "30.973761998(5)",
        "band_gap": NaN,
        "boiling_point": NaN,
        "brinell_hardness": NaN,
        "bulk_modulus": "white: 5 GPa, red: 11 GPa",
        "cas_number": "white: 12185-10-3, red: 7723-14-0",
        "color": NaN,
        "covalent_radius": "107\u00b13 pm",
        "critical_point": NaN,
        "crystal_structure": "body-centred cubic (bcc)",
        "curie_point": NaN,
        "density_at_stp": NaN,
        "density_near_rt": "white: 1.823 g\u00b7cm?3, red: ? 2.2\u20132.34 g\u00b7cm?3, violet: 2.36 g\u00b7cm?3, black: 2.69 g/cm3",
        "density_when_liquid_at_mp": NaN,
        "discovery": "Hennig Brand (1669)",
        "discovery_and_first_isolation": NaN,
        "electrical_resistivity": NaN,
        "electron_configuration": "[Ne] 3s2 3p3",
        "electronegativity": "Pauling scale: 2.19",
        "element_category": "polyatomic nonmetal",
        "first_isolation": NaN,
        "group_block": "group 15 (pnictogens), p-block",
        "heat_of_fusion": "white: 0.66 kJ/mol",
        "heat_of_vaporisation": "white: 51.9 kJ/mol",
        "heat_of_vaporization": NaN,
        "ionisation_energies": "1st: 1011.8 kJ/mol, 2nd: 1907 kJ/mol, 3rd: 2914.1 kJ/mol, (more)",
        "ionization_energies": NaN,
        "iso": "iso, NA, half-life, DM, DE (MeV), DP, 31P, 100%, 31P is stable with 16 neutrons, 32P, trace, 14.28 d, ??, 1.709, 32S, 33P, trace, 25.3 d, ??, 0.249, 33S",
        "magnetic_ordering": "white, red, violet, black: diamagnetic",
        "melting_point": NaN,
        "mohs_hardness": NaN,
        "molar_heat_capacity": "white: 23.824 J/(mol\u00b7K)",
        "molar_volume": NaN,
        "name": "Phosphorus",
        "named_by": NaN,
        "naming": NaN,
        "oxidation_states": "5, 4, 3, 2, 1, ?1, ?2, ?3 (a mildly acidic oxide)",
        "p_(pa)": "vapour pressure (red, b.p. 431 \u00b0C)\n\n\n\nP (Pa)\n1\n10\n100\n1 k\n10 k\n100 k\n\n\nat T (K)\n455\n489\n529\n576\n635\n704",
        "per_shell": "2, 8, 5",
        "period": 3,
        "phase": "solid",
        "poisson_ratio": NaN,
        "prediction": NaN,
        "pronunciation": "/?f?sf?r?s/, FOS-f?r-?s",
        "proposed_formal_name": NaN,
        "recognised_as_an_element_by": "Antoine Lavoisier (1777)",
        "recognized_as_a_distinct_element_by": NaN,
        "recognized_as_a_unique_metal_by": NaN,
        "recognized_as_an_element_by": NaN,
        "shear_modulus": NaN,
        "speed_of_sound": NaN,
        "speed_of_sound_thin_rod": NaN,
        "sublimation_point": NaN,
        "symbol": "P",
        "tensile_strength": NaN,
        "thermal_conductivity": "white: 0.236 W/(m\u00b7K), black: 12.1 W/(m\u00b7K)",
        "thermal_diffusivity": NaN,
        "thermal_expansion": NaN,
        "triple_point": NaN,
        "van_der_waals_radius": "180 pm",
        "vickers_hardness": NaN,
        "when_liquid_at_bp": NaN,
        "when_liquid_at_mp": NaN,
        "youngs_modulus": NaN
    }
}