var element_data = {
    "wiki": "https://en.wikipedia.org/wiki/Phosphorus",
    "video": "https://www.youtube.com/watch?v=LSYLUat03A4&list=PL7A1F4CF36C085DE1&index=15",
    "image": "Phosphorus/phosphorus.jpg",
    "species": "OTHER NONMETALS",
    "symbol": "P",
    "latin_name": "Phosphorus",
    "english_name": "Phosphorus",
    "year_discovered": "1669",
    "discovered_by": "Hennig Brand",
    "Electron_shell": [
        {
            "K": 2
        },
        {
            "L": 8
        },
        {
            "M": 5
        },
        {
            "N": 0
        },
        {
            "O": 0
        },
        {
            "P": 0
        },
        {
            "Q": 0
        },
        {
            "R": 0
        }
    ],
    "epn_no": [
        {
            "electrons": 15,
        },
        {
            "protons": 15,
        },
        {
            "neutrons": 16
        }
    ],
    "atomic_number": 15,
    "atomic_weight": "30.9737 (g/mol)",
    "density": "2.82 (g/cm³)",
    "melting_point": "44.15 °C = 111.47 °F = 317.30 K",
    "boiling_point": "280.5 °C = 536.90 °F = 553.65 K",
    "valence_electrons": 5,
    "period": 3,
    "group": "V A",
    "block": "p-block",
    "emission_spectrum": "Phosphorus/Ph.gif",
    "phase": "Solid",
    "phase_icon": "----",
    "fusion_heat": "0.64 (kJ &middot K)",
    "specific_heat": "769.7 J/(kg &middot; K)",
    "thermal_expansion": "---- °C<sup>-1</sup>)",
    "vaporization_heat": "12.4 kJ &middot; mol",
    "electron_configuration": "[Ne] 3s<sup>2</sup> 3p<sup>3</sup>",
    "oxidation_state": "-3, -2, -1, +1, +2, +3, +4, +5",
    "ion_charge": "P<sup>3-</sup>",
    "ionization_potential": "10.3 eV",
    "atomic_radius": "128 (pm)",
    "covalent_radius": "106 (pm)",
    "van_der_waals_radius": "180 (pm)",
    "electrical_conductivity": "1 &middot; 10<sup>7</sup>",
    "electrical_type": "Conductor", 
    "magnetic_type": "Diamagnetic",
    "volume_susceptibility": "-0.0000206",
    "mass_susceptibility": "-0.0000000113",
    "molar_susceptibility": "-3.5 &middot; 10<sup>-10</sup> m<sup>3</sup>/mol",
    "resistivity": "-3.5 &middot; 10<sup>-7</sup> m\u03A9",
    "superconducting_point": "----",
    "lattice_structure": "Phosphorus/Lattice_body_centered_cubic.svg.png",
    "crystal_structure": "Body-centered cubic",
    "grid": "a=18.800 \u212B",
    "attitude": "----",
    "debye_temperature": "----",
    "space_group_name": "----",
    "space_group_number": "2",
    "CAS_number": "CAS7723-14-0",
    "CID_number": "CID5462309",
    "RTEC_number": "RTECSTH3495000",
    "brinell_hardness": "---- MPa",
    "mohs_hardness": "----",
    "vickers_hardness": "----",
    "bulk_modulus": "11 GPa",
    "Young_modulus": "---- GPa",
    "liquid_density": "---- (g/cm<sup>3</sup>)",
    "molar_volume": "17 (cm<sup>3</sup>/mol)",
    "poisson_ratio": "----",
    "shear_modulus": "---- GPa",
    "sound_speed": "---- m/s",
    "refractive_index": "----",
    "thermal_conductivity": "0.236 W/mK",
    "electronegative": "Pauling Scale 2.19",
    "electron_affinity": "72 KJ/mol",
    "radioactivity": "no",
    "half_life": "\u221E",
    "life_time": "\u221E",
    "barn": "0.18 b",
    "hazard_block": [
        {
            "red": "4"
        },
        {
            "yellow": "2"
        },
        {
            "blue": "4"
        },
        {
            "white": "-"
        }
    ],
    "fire_hazard": "Below 22.7 °C",
    "health_hazard":"Deadly",
    "reactivity": "Violent chemical change",
    "specific": "----",
    "universe_contains": "0.0007> %",
    "sun_contains": "0.00007 %",
    "oceans_contains": "7 &middot; 10<sup>-6</sup> %",
    "human_body_contains": "1.1 %",
    "earth_crust_contains": "0.099 %",
    "meteorites_contains": "0.11 %",
    "start_isotope_number": 24,
    "stop_isotope_number": 33,
    "half_life_number": ["-", "30ns", "43.7 ms", "260 ms", "270 ms", "4.142 s", "2.498 s", "-", "14.263 days", "25.34 days"],
    "iso_weight": [24.03435, 25.02026, 26.01178, 26.99923, 27.99231, 28.9810, 29.97831, 30.97390, 31.97390, 32.97172]
}