{
    "protactinium_Pa": {
        "allotropes": NaN,
        "alternative_name": NaN,
        "alternative_names": NaN,
        "appearance": "bright, silvery metallic luster",
        "at_t_(k)": NaN,
        "atomic_number": 91,
        "atomic_radius": "empirical: 163 pm",
        "atomic_weight": "231.03588(2)",
        "band_gap": NaN,
        "boiling_point": "4300 K (4027 \u00b0C, 7280 \u00b0F) (?)",
        "brinell_hardness": NaN,
        "bulk_modulus": NaN,
        "cas_number": "7440-13-3",
        "color": NaN,
        "covalent_radius": "200 pm",
        "critical_point": NaN,
        "crystal_structure": "tetragonal",
        "curie_point": NaN,
        "density_at_stp": NaN,
        "density_near_rt": "15.37 g/cm3",
        "density_when_liquid_at_mp": NaN,
        "discovery": NaN,
        "discovery_and_first_isolation": "Kasimir Fajans and Oswald Helmuth G\u00f6hring (1913)",
        "electrical_resistivity": "177 n?\u00b7m (at 0 \u00b0C)",
        "electron_configuration": "[Rn] 5f2 6d1 7s2",
        "electronegativity": "Pauling scale: 1.5",
        "element_category": "actinide",
        "first_isolation": NaN,
        "group_block": "group n/a, f-block",
        "heat_of_fusion": "12.34 kJ/mol",
        "heat_of_vaporisation": NaN,
        "heat_of_vaporization": "481 kJ/mol",
        "ionisation_energies": NaN,
        "ionization_energies": "1st: 568 kJ/mol",
        "iso": "iso, NA, half-life, DM, DE (MeV), DP, 229Pa, syn, 1.5 d, ?, 0.311, 229Th, 230Pa, syn, 17.4 d, ?, 1.310, 230Th, 231Pa, 100%, 3.276\u00d7104 y, ?, 5.150, 227Ac, 232Pa, syn, 1.31 d, ??, 1.337, 232U, 233Pa, trace, 26.967 d, ??, 0.5701, 233U, 234Pa, trace, 6.75 h, ??, 2.195, 234U, 234mPa, trace, 1.17 min, ??, 2.29, 234U",
        "magnetic_ordering": "paramagnetic",
        "melting_point": "1841 K (1568 \u00b0C, 2854 \u00b0F)",
        "mohs_hardness": NaN,
        "molar_heat_capacity": NaN,
        "molar_volume": NaN,
        "name": "Protactinium",
        "named_by": "Otto Hahn and Lise Meitner (1917\u20138)",
        "naming": NaN,
        "oxidation_states": "2, 3, 4, 5 (a weakly basic oxide)",
        "p_(pa)": NaN,
        "per_shell": "2, 8, 18, 32, 20, 9, 2",
        "period": 7,
        "phase": "solid",
        "poisson_ratio": NaN,
        "prediction": "Dmitri Mendeleev (1869)",
        "pronunciation": "/?pro?t\u00e6k?t?ni?m/, PROH-tak-TIN-ee-?m",
        "proposed_formal_name": NaN,
        "recognised_as_an_element_by": NaN,
        "recognized_as_a_distinct_element_by": NaN,
        "recognized_as_a_unique_metal_by": NaN,
        "recognized_as_an_element_by": NaN,
        "shear_modulus": NaN,
        "speed_of_sound": NaN,
        "speed_of_sound_thin_rod": NaN,
        "sublimation_point": NaN,
        "symbol": "Pa",
        "tensile_strength": NaN,
        "thermal_conductivity": "47 W/(m\u00b7K)",
        "thermal_diffusivity": NaN,
        "thermal_expansion": "~9.9 \u00b5m/(m\u00b7K) (at r.t.)",
        "triple_point": NaN,
        "van_der_waals_radius": NaN,
        "vickers_hardness": NaN,
        "when_liquid_at_bp": NaN,
        "when_liquid_at_mp": NaN,
        "youngs_modulus": NaN
    }
}