{
    "arsenic_As": {
        "allotropes": "grey (most common), yellow, black",
        "alternative_name": NaN,
        "alternative_names": NaN,
        "appearance": "metallic grey",
        "at_t_(k)": 553.0,
        "atomic_number": 33,
        "atomic_radius": "empirical: 119 pm",
        "atomic_weight": "74.921595(6)",
        "band_gap": NaN,
        "boiling_point": NaN,
        "brinell_hardness": "1440 MPa",
        "bulk_modulus": "22 GPa",
        "cas_number": "7440-38-2",
        "color": NaN,
        "covalent_radius": "119\u00b14 pm",
        "critical_point": "1673 K, ? MPa",
        "crystal_structure": "rhombohedral",
        "curie_point": NaN,
        "density_at_stp": NaN,
        "density_near_rt": "5.727 g/cm3",
        "density_when_liquid_at_mp": NaN,
        "discovery": "Early Bronze Age (2500 BC)",
        "discovery_and_first_isolation": NaN,
        "electrical_resistivity": "333 n?\u00b7m (at 20 \u00b0C)",
        "electron_configuration": "[Ar] 3d10 4s2 4p3",
        "electronegativity": "Pauling scale: 2.18",
        "element_category": "metalloid",
        "first_isolation": "Albertus Magnus (1250)",
        "group_block": "group 15 (pnictogens), p-block",
        "heat_of_fusion": "grey: 24.44 kJ/mol",
        "heat_of_vaporisation": NaN,
        "heat_of_vaporization": "34.76 kJ/mol (?)",
        "ionisation_energies": NaN,
        "ionization_energies": "1st: 947.0 kJ/mol, 2nd: 1798 kJ/mol, 3rd: 2735 kJ/mol, (more)",
        "iso": "iso\nNA\nhalf-life\nDM\nDE (MeV)\nDP\n\n\n73As\nsyn\n80.3 d\n?\n\u2013\n73Ge\n\n\n?\n0.05D, 0.01D, e\n\u2013\n\n\n74As\nsyn\n17.78 d\n?\n\u2013\n74Ge\n\n\n?+\n0.941\n74Ge\n\n\n?\n0.595, 0.634\n\u2013\n\n\n??\n1.35, 0.717\n74Se\n\n\n75As\n100%\n75As is stable with 42 neutrons",
        "magnetic_ordering": "diamagnetic",
        "melting_point": NaN,
        "mohs_hardness": "3.5",
        "molar_heat_capacity": "24.64 J/(mol\u00b7K)",
        "molar_volume": NaN,
        "name": "Arsenic",
        "named_by": NaN,
        "naming": NaN,
        "oxidation_states": "5, 4, 3, 2, 1, ?1, ?2, ?3 (a mildly acidic oxide)",
        "p_(pa)": "vapor pressure, P (Pa), 1, 10, 100, 1 k, 10 k, 100 k, at T (K), 553, 596, 646, 706, 781, 874",
        "per_shell": "2, 8, 18, 5",
        "period": 4,
        "phase": "solid",
        "poisson_ratio": NaN,
        "prediction": NaN,
        "pronunciation": "/???rs?n?k/, also /??r?s?n?k/ when attributive\nAR-s?-nik, ar-SEN-ik",
        "proposed_formal_name": NaN,
        "recognised_as_an_element_by": NaN,
        "recognized_as_a_distinct_element_by": NaN,
        "recognized_as_a_unique_metal_by": NaN,
        "recognized_as_an_element_by": NaN,
        "shear_modulus": NaN,
        "speed_of_sound": NaN,
        "speed_of_sound_thin_rod": NaN,
        "sublimation_point": "887 K (615 \u00b0C, 1137 \u00b0F)",
        "symbol": "As",
        "tensile_strength": NaN,
        "thermal_conductivity": "50.2 W/(m\u00b7K)",
        "thermal_diffusivity": NaN,
        "thermal_expansion": "5.6 \u00b5m/(m\u00b7K) (at r.t.)",
        "triple_point": "1090 K, 3628 kPa",
        "van_der_waals_radius": "185 pm",
        "vickers_hardness": NaN,
        "when_liquid_at_bp": NaN,
        "when_liquid_at_mp": "5.22 g/cm3",
        "youngs_modulus": "8 GPa"
    }
}