var element_data = {
    "wiki": "https://en.wikipedia.org/wiki/Arsenic",
    "video": "https://www.youtube.com/watch?v=yD8Vz-mFHgI&list=PL7A1F4CF36C085DE1&index=33",
    "image": "Arsenic/arsenic.jpg",
    "species": "noble gas",
    "symbol": "As",
    "latin_name": "Arsenicum",
    "english_name": "Arsenic",
    "year_discovered": "1250",
    "discovered_by": "Albertus Magnus",
    "Electron_shell": [
        {
            "K": 2
        },
        {
            "L": 8
        },
        {
            "M": 18
        },
        {
            "N": 5
        },
        {
            "O": 0
        },
        {
            "P": 0
        },
        {
            "Q": 0
        },
        {
            "R": 0
        }
    ],
    "epn_no": [
        {
            "electrons": 33,
        },
        {
            "protons": 33,
        },
        {
            "neutrons": 42
        }
    ],
    "atomic_number": 33,
    "atomic_weight": "74.9216 (g/mol)",
    "density": "5.72 (g/cm³)",
    "melting_point": "----",
    "boiling_point": "613 °C = 1135.40 °F = 886.15 K",
    "valence_electrons": "35",
    "period": 4,
    "group": "V A",
    "block": "p-block",
    "emission_spectrum": "Arsenic/As.gif",
    "phase": "Solid",
    "phase_icon": "----",
    "fusion_heat": "27.7 (kJ &middot K)",
    "specific_heat": "228 J/(kg &middot; K)",
    "thermal_expansion": "5.6 &middot; 10<sup>-6</sup>°C<sup>-1</sup>)",
    "vaporization_heat": "32.4 kJ &middot; mol",
    "electron_configuration": "[Kr] 3d<sup>10</sup>4s<sup>2</sup>4p<sup>3</sup>",
    "oxidation_state": "-3, -2, -1, +1, +2, +3, +4, +5",
    "ion_charge": "As<sup>3-</sup>",
    "ionization_potential": "9.96 ev",
    "atomic_radius": "139 (pm)",
    "covalent_radius": "119 (pm)",
    "van_der_waals_radius": "185 (pm)",
    "electrical_conductivity": "3.3 &middot; 10<sup>-6</sup>",
    "electrical_type": "Conductor", 
    "magnetic_type": "Paramagnetic",
    "volume_susceptibility": "-0.0000223",
    "mass_susceptibility": "-0.0000000039",
    "molar_susceptibility": "-2.92 &middot; 10<sup>-10</sup> m<sup>3</sup>/mol",
    "resistivity": "3 &middot; 10<sup>-7</sup> m\u03A9",
    "superconducting_point": "----",
    "lattice_structure": "Arsenic/Rhombohedral.png",
    "crystal_structure": "Rhombohedral",
    "grid": "a=0.4123 \u212B; α=54.17° ",
    "attitude": "----",
    "debye_temperature": "11.85 °C = 53.33 °F = 285 K",
    "space_group_name": "R_3m",
    "space_group_number": "166",
    "CAS_number": "CAS7440-38-2",
    "CID_number": "CID5359596",
    "RTEC_number": "RTECSCG0525000",
    "brinell_hardness": "1440 MPa",
    "mohs_hardness": "3.5",
    "vickers_hardness": "----",
    "bulk_modulus": "22 GPa",
    "Young_modulus": "8 GPa",
    "liquid_density": "5.22 (g/cm<sup>3</sup>)",
    "molar_volume": "13.1 (cm<sup>3</sup>/mol)",
    "poisson_ratio": "----",
    "shear_modulus": "---- GPa",
    "sound_speed": "319 m/s",
    "refractive_index": "1.001552",
    "thermal_conductivity": "50 W/mK",
    "electronegative": "Pauling Scale 2.18",
    "electron_affinity": "78 KJ/mol",
    "radioactivity": "no",
    "half_life": "\u221E",
    "life_time": "\u221E",
    "barn": "4.3 b",
    "hazard_block": [
        {
            "red": "2"
        },
        {
            "yellow": "-"
        },
        {
            "blue": "3"
        },
        {
            "white": "-"
        }
    ],
    "fire_hazard": "Below 93.3 °C",
    "health_hazard":"Extreme danger",
    "reactivity": "----",
    "specific": "----",
    "universe_contains": "8 &middot; 10<sup>-7</sup> %",
    "sun_contains": "2.3 &middot; 10<sup>-7</sup> %",
    "oceans_contains": "5 &middot; 10<sup>-6</sup> %",
    "human_body_contains": "5 &middot; 10<sup>-6</sup> %",
    "earth_crust_contains": "0.00021 %",
    "meteorites_contains": "0.00018 %",
    "start_isotope_number": 60,
    "stop_isotope_number": 66,
    "half_life_number": ["-", "-", "-", "-", "40 ms", "170 ms", "95.77 ms"],
    "iso_weight": [59.99313, 60.98062, 61.97320, 62.96369, 63.95757, 64.94956, 65.94471]
}