{
    "iodine_I": {
        "allotropes": NaN,
        "alternative_name": NaN,
        "alternative_names": NaN,
        "appearance": "lustrous metallic gray, violet as a gas",
        "at_t_(k)": 260.0,
        "atomic_number": 53,
        "atomic_radius": "empirical: 140 pm",
        "atomic_weight": "126.90447(3)",
        "band_gap": NaN,
        "boiling_point": "457.4 K (184.3 \u00b0C, 363.7 \u00b0F)",
        "brinell_hardness": NaN,
        "bulk_modulus": "7.7 GPa",
        "cas_number": "7553-56-2",
        "color": NaN,
        "covalent_radius": "139\u00b13 pm",
        "critical_point": "819 K, 11.7 MPa",
        "crystal_structure": "orthorhombic",
        "curie_point": NaN,
        "density_at_stp": NaN,
        "density_near_rt": "4.933 g/cm3",
        "density_when_liquid_at_mp": NaN,
        "discovery": NaN,
        "discovery_and_first_isolation": "Bernard Courtois (1811)",
        "electrical_resistivity": "1.3\u00d7107 ?\u00b7m (at 0 \u00b0C)",
        "electron_configuration": "[Kr] 4d10 5s2 5p5",
        "electronegativity": "Pauling scale: 2.66",
        "element_category": "diatomic nonmetal",
        "first_isolation": NaN,
        "group_block": "group 17 (halogens), p-block",
        "heat_of_fusion": "(I2) 15.52 kJ/mol",
        "heat_of_vaporisation": "(I2) 41.57 kJ/mol",
        "heat_of_vaporization": NaN,
        "ionisation_energies": "1st: 1008.4 kJ/mol, 2nd: 1845.9 kJ/mol, 3rd: 3180 kJ/mol",
        "ionization_energies": NaN,
        "iso": "iso\nNA\nhalf-life\nDM\nDE (MeV)\nDP\n\n\n123I\nsyn\n13 h\n?, ?\n0.16\n123Te\n\n\n124I\nsyn\n4.176 d\n?\n\u2013\n124Te\n\n\n125I\nsyn\n59.40 d\n?\n\u2013\n125Te\n\n\n127I\n100%\n127I is stable with 74 neutrons\n\n\n129I\ntrace\n1.57\u00d7107 y\n??\n0.194\n129Xe\n\n\n131I\nsyn\n8.02070 d\n??, ?\n0.971\n131Xe\n\n\n135I\nsyn\n6.57 h\n??\n\u2013\n135Xe",
        "magnetic_ordering": "diamagnetic",
        "melting_point": "386.85 K (113.7 \u00b0C, 236.66 \u00b0F)",
        "mohs_hardness": NaN,
        "molar_heat_capacity": "(I2) 54.44 J/(mol\u00b7K)",
        "molar_volume": NaN,
        "name": "Iodine",
        "named_by": NaN,
        "naming": NaN,
        "oxidation_states": "7, 6, 5, 4, 3, 1, ?1 (a strongly acidic oxide)",
        "p_(pa)": "vapour pressure (rhombic), P (Pa), 1, 10, 100, 1 k, 10 k, 100 k, at T (K), 260, 282, 309, 342, 381, 457",
        "per_shell": "2, 8, 18, 18, 7",
        "period": 5,
        "phase": "solid",
        "poisson_ratio": NaN,
        "prediction": NaN,
        "pronunciation": "/?a?.?da?n/, /?a?.?d?n/, or /?a?.?di?n/\nEYE-?-dyn, EYE-?-d?n, or EYE-?-deen",
        "proposed_formal_name": NaN,
        "recognised_as_an_element_by": NaN,
        "recognized_as_a_distinct_element_by": NaN,
        "recognized_as_a_unique_metal_by": NaN,
        "recognized_as_an_element_by": NaN,
        "shear_modulus": NaN,
        "speed_of_sound": NaN,
        "speed_of_sound_thin_rod": NaN,
        "sublimation_point": NaN,
        "symbol": "I",
        "tensile_strength": NaN,
        "thermal_conductivity": "0.449 W/(m\u00b7K)",
        "thermal_diffusivity": NaN,
        "thermal_expansion": NaN,
        "triple_point": "386.65 K, 12.1 kPa",
        "van_der_waals_radius": "198 pm",
        "vickers_hardness": NaN,
        "when_liquid_at_bp": NaN,
        "when_liquid_at_mp": NaN,
        "youngs_modulus": NaN
    }
}