var element_data = {
    "wiki": "https://en.wikipedia.org/wiki/Iodine",
    "video": "https://www.youtube.com/watch?v=JUBsJLRSM64&list=PL7A1F4CF36C085DE1&index=53",
    "image": "Iodine/iodine.jpg",
    "species": "HALOGENS",
    "symbol": "I",
    "latin_name": "Iodine",
    "english_name": "Iodine",
    "year_discovered": "1811",
    "discovered_by": "Bernard Courtois",
    "Electron_shell": [
        {
            "K": 2
        },
        {
            "L": 8
        },
        {
            "M": 18
        },
        {
            "N": 18
        },
        {
            "O": 7
        },
        {
            "P": 0
        },
        {
            "Q": 0
        },
        {
            "R": 0
        }
    ],
    "epn_no": [
        {
            "electrons": 53,
        },
        {
            "protons": 53,
        },
        {
            "neutrons": 74
        }
    ],
    "atomic_number": 54,
    "atomic_weight": "126.904 (g/mol)",
    "density": "4.94 (g/cm³)",
    "melting_point": "113.55 °C = 236.39 °F = 386.70 K",
    "boiling_point": "184.35 °C = 363.83 °F = 457.50 K",
    "valence_electrons": "7",
    "period": 5,
    "group": "VII A",
    "block": "p-block",
    "emission_spectrum": "Iodine/I.gif",
    "phase": "Solid",
    "phase_icon": "----",
    "fusion_heat": "7.76 (kJ &middot K)",
    "specific_heat": "429 J/(kg &middot; K)",
    "thermal_expansion": "---- °C<sup>-1</sup>)",
    "vaporization_heat": "20.9 kJ &middot; mol",
    "electron_configuration": "[Kr] 4d<sup>10</sup>5s<sup>2</sup>5p<sup>5</sup>",
    "oxidation_state": "-1, +1, +3, +4, +5, +6, +7",
    "ion_charge": "I<sup>-</sup>",
    "ionization_potential": "10.4 eV",
    "atomic_radius": "136 (pm)",
    "covalent_radius": "133 (pm)",
    "van_der_waals_radius": "198 (pm)",
    "electrical_conductivity": "1 &middot; 10<sup>-7</sup>",
    "electrical_type": "Diaelectric", 
    "magnetic_type": "----",
    "volume_susceptibility": "-0.0000222",
    "mass_susceptibility": "-0.0000000045",
    "molar_susceptibility": "-1.14 &middot; 10<sup>-9</sup> m<sup>3</sup>/mol",
    "resistivity": "1 &middot; 10<sup>7</sup> m\u03A9",
    "superconducting_point": "----",
    "lattice_structure": "Iodine/Orthorhombic.svg.png",
    "crystal_structure": "Orthorhombic",
    "grid": "a=7.18 \u212B; b=4.71 \u212B; c=9.81 \u212B",
    "attitude": "----",
    "debye_temperature": "----",
    "space_group_name": "Cmca",
    "space_group_number": "64",
    "CAS_number": "CAS7553-56-2",
    "CID_number": "CID807",
    "RTEC_number": "RTECSNN1575000",
    "brinell_hardness": "---- MPa",
    "mohs_hardness": "----",
    "vickers_hardness": "----",
    "bulk_modulus": "7.7 GPa",
    "Young_modulus": "---- GPa",
    "liquid_density": "---- (g/cm<sup>3</sup>)",
    "molar_volume": "25.7 (cm<sup>3</sup>/mol)",
    "poisson_ratio": "----",
    "shear_modulus": "---- GPa",
    "sound_speed": "---- m/s",
    "refractive_index": "----",
    "thermal_conductivity": "0.449 W/mK",
    "electronegative": "Pauling Scale 2.66",
    "electron_affinity": "295.2 KJ/mol",
    "radioactivity": "no",
    "half_life": "\u221E",
    "life_time": "\u221E",
    "barn": "6.2 b",
    "hazard_block": [
        {
            "red": "0"
        },
        {
            "yellow": "0"
        },
        {
            "blue": "3"
        },
        {
            "white": "-"
        }
    ],
    "fire_hazard": "Will not burn",
    "health_hazard":"Extreme danger",
    "reactivity": "Stable",
    "specific": "----",
    "universe_contains": "1 &middot; 10<sup>-7</sup> %",
    "sun_contains": "6 &middot; 10<sup>-6</sup> %",
    "oceans_contains": "6 &middot; 10<sup>-6</sup> %",
    "human_body_contains": "0.00002 %",
    "earth_crust_contains": "0.000049 %",
    "meteorites_contains": "0.000025 %",
    "start_isotope_number": 108,
    "stop_isotope_number": 145,
    "half_life_number": ["36 ms", "103 ms", "650 ms", "2.5 s", "3.42 s", "6.6 s", "2.1 s", "1.3 m", "2.91 s", "2.22 m", "13.7 m", "19.1 m", "81.6 m", "2.12 years", "3.63 m", "13.2235 years", "4.1760 years", "59.400 years", "12.93 years", "Stable", "24.99 m", "1.57 &middot; 10<sup>7</sup> years", "1.57 &middot; 10<sup>-7</sup> years", "8.02070 day", "2.295 hours", "20.8 hours", "52.5 m", "6.57 hours", "83.4 s", "24.13 s", "6.23 s", "2.282 s", "860 ms", "430 ms", "~200 ms", "100 ms", "50 m", "407 ns"],
    "iso_weight": [107.94348, 108.93815, 109.93524, 110.93028, 111.92797, 112.92364, 113.92185, 114.91805, 115.91681, 116.91365, 117.91307, 118.91007, 119.91004, 120.90736, 121.90758, 122.90558, 123.90620, 124.90463, 125.90562, 126.90447, 127.90580, 128.90490, 129.90667, 130.90612, 131.90799, 132.90779, 133.90779, 134.91004, 135.91465, 136.91787, 137.92235, 138.92610, 139.39100, 140.93503, 141.94018, 142.94456, 143.94999, NaN]
}