{
    "livermorium_Lv": {
        "allotropes": NaN,
        "alternative_name": NaN,
        "alternative_names": NaN,
        "appearance": NaN,
        "at_t_(k)": NaN,
        "atomic_number": 116,
        "atomic_radius": "empirical: 183 pm (predicted)",
        "atomic_weight": "[293]",
        "band_gap": NaN,
        "boiling_point": "1035\u20131135 K (762\u2013862 \u00b0C, 1403\u20131583 \u00b0F) (extrapolated)",
        "brinell_hardness": NaN,
        "bulk_modulus": NaN,
        "cas_number": "54100-71-9",
        "color": NaN,
        "covalent_radius": "162\u2013166 pm (extrapolated)",
        "critical_point": NaN,
        "crystal_structure": NaN,
        "curie_point": NaN,
        "density_at_stp": NaN,
        "density_near_rt": "12.9 g/cm3 (predicted)",
        "density_when_liquid_at_mp": NaN,
        "discovery": "Joint Institute for Nuclear Research and Lawrence Livermore National Laboratory (2000)",
        "discovery_and_first_isolation": NaN,
        "electrical_resistivity": NaN,
        "electron_configuration": "[Rn] 5f14 6d10 7s2 7p4 (predicted)",
        "electronegativity": NaN,
        "element_category": "unknown, but probably a post-transition metal",
        "first_isolation": NaN,
        "group_block": "group 16 (chalcogens), p-block",
        "heat_of_fusion": "7.61 kJ/mol (extrapolated)",
        "heat_of_vaporisation": NaN,
        "heat_of_vaporization": "42 kJ/mol (predicted)",
        "ionisation_energies": NaN,
        "ionization_energies": "1st: 723.6 kJ/mol (predicted), 2nd: 1331.5 kJ/mol (predicted), 3rd: 2846.3 kJ/mol (predicted), (more)",
        "iso": "iso, NA, half-life, DM, DE (MeV), DP, 293Lv, syn, 61 ms, ?, 10.54, 289Fl, 292Lv, syn, 18 ms, ?, 10.66, 288Fl, 291Lv, syn, 18 ms, ?, 10.74, 287Fl, 290Lv, syn, 7.1 ms, ?, 10.84, 286Fl",
        "magnetic_ordering": NaN,
        "melting_point": "637\u2013780 K (364\u2013507 \u00b0C, 687\u2013944 \u00b0F) (extrapolated)",
        "mohs_hardness": NaN,
        "molar_heat_capacity": NaN,
        "molar_volume": NaN,
        "name": "Ununhexium",
        "named_by": NaN,
        "naming": "after Lawrence Livermore National Laboratory, itself named partly after Livermore, California",
        "oxidation_states": "?2, +2, +4 (predicted)",
        "p_(pa)": NaN,
        "per_shell": "2, 8, 18, 32, 32, 18, 6 (predicted)",
        "period": 7,
        "phase": "solid (predicted)",
        "poisson_ratio": NaN,
        "prediction": NaN,
        "pronunciation": "/?l?v?r?m??ri?m/, LIV-?r-MOHR-ee-?m",
        "proposed_formal_name": NaN,
        "recognised_as_an_element_by": NaN,
        "recognized_as_a_distinct_element_by": NaN,
        "recognized_as_a_unique_metal_by": NaN,
        "recognized_as_an_element_by": NaN,
        "shear_modulus": NaN,
        "speed_of_sound": NaN,
        "speed_of_sound_thin_rod": NaN,
        "sublimation_point": NaN,
        "symbol": "Uuh",
        "tensile_strength": NaN,
        "thermal_conductivity": NaN,
        "thermal_diffusivity": NaN,
        "thermal_expansion": NaN,
        "triple_point": NaN,
        "van_der_waals_radius": NaN,
        "vickers_hardness": NaN,
        "when_liquid_at_bp": NaN,
        "when_liquid_at_mp": NaN,
        "youngs_modulus": NaN
    }
}