{
    "gadolinium_Gd": {
        "allotropes": NaN,
        "alternative_name": NaN,
        "alternative_names": NaN,
        "appearance": "silvery white",
        "at_t_(k)": 1836.0,
        "atomic_number": 64,
        "atomic_radius": "empirical: 180 pm",
        "atomic_weight": "157.25(3)",
        "band_gap": NaN,
        "boiling_point": "3273 K (3000 \u00b0C, 5432 \u00b0F)",
        "brinell_hardness": NaN,
        "bulk_modulus": "? form: 37.9 GPa",
        "cas_number": "7440-54-2",
        "color": NaN,
        "covalent_radius": "196\u00b16 pm",
        "critical_point": NaN,
        "crystal_structure": "hexagonal close-packed (hcp)",
        "curie_point": NaN,
        "density_at_stp": NaN,
        "density_near_rt": "7.90 g/cm3",
        "density_when_liquid_at_mp": NaN,
        "discovery": "Jean Charles Galissard de Marignac (1880)",
        "discovery_and_first_isolation": NaN,
        "electrical_resistivity": "?, poly: 1.310 \u00b5?\u00b7m",
        "electron_configuration": "[Xe] 4f7 5d1 6s2",
        "electronegativity": "Pauling scale: 1.20",
        "element_category": "lanthanide",
        "first_isolation": "Lecoq de Boisbaudran (1886)",
        "group_block": "group n/a, f-block",
        "heat_of_fusion": "10.05 kJ/mol",
        "heat_of_vaporisation": NaN,
        "heat_of_vaporization": "301.3 kJ/mol",
        "ionisation_energies": NaN,
        "ionization_energies": "1st: 593.4 kJ/mol, 2nd: 1170 kJ/mol, 3rd: 1990 kJ/mol",
        "iso": "iso, NA, half-life, DM, DE (MeV), DP, 148Gd, syn, 75 y, ?, 3.271, 144Sm, 150Gd, syn, 1.8\u00d7106 y, ?, 2.808, 146Sm, 152Gd, 0.20%, 1.08\u00d71014 y, ?, 2.205, 148Sm, 154Gd, 2.18%, 154Gd is stable with 90 neutrons, 155Gd, 14.80%, 155Gd is stable with 91 neutrons, 156Gd, 20.47%, 156Gd is stable with 92 neutrons, 157Gd, 15.65%, 157Gd is stable with 93 neutrons, 158Gd, 24.84%, 158Gd is stable with 94 neutrons, 160Gd, 21.86%, 160Gd is stable with 96 neutrons",
        "magnetic_ordering": "ferromagnetic-paramagnetic transition at 293.4 K",
        "melting_point": "1585 K (1312 \u00b0C, 2394 \u00b0F)",
        "mohs_hardness": NaN,
        "molar_heat_capacity": "37.03 J/(mol\u00b7K)",
        "molar_volume": NaN,
        "name": "Gadolinium",
        "named_by": NaN,
        "naming": "after the mineral Gadolinite (itself named after Johan Gadolin)",
        "oxidation_states": "1, 2, 3 (a mildly basic oxide)",
        "p_(pa)": "vapor pressure (calculated), P (Pa), 1, 10, 100, 1 k, 10 k, 100 k, at T (K), 1836, 2028, 2267, 2573, 2976, 3535",
        "per_shell": "2, 8, 18, 25, 9, 2",
        "period": 6,
        "phase": "solid",
        "poisson_ratio": "? form: 0.259",
        "prediction": NaN,
        "pronunciation": "/??\u00e6d??l?ni?m/, GAD-?-LIN-ee-?m",
        "proposed_formal_name": NaN,
        "recognised_as_an_element_by": NaN,
        "recognized_as_a_distinct_element_by": NaN,
        "recognized_as_a_unique_metal_by": NaN,
        "recognized_as_an_element_by": NaN,
        "shear_modulus": "? form: 21.8 GPa",
        "speed_of_sound": NaN,
        "speed_of_sound_thin_rod": "2680 m/s (at 20 \u00b0C)",
        "sublimation_point": NaN,
        "symbol": "Gd",
        "tensile_strength": NaN,
        "thermal_conductivity": "10.6 W/(m\u00b7K)",
        "thermal_diffusivity": NaN,
        "thermal_expansion": "? poly: 9.4 \u00b5m/(m\u00b7K) (at 100 \u00b0C)",
        "triple_point": NaN,
        "van_der_waals_radius": NaN,
        "vickers_hardness": "510\u2013950 MPa",
        "when_liquid_at_bp": NaN,
        "when_liquid_at_mp": "7.4 g/cm3",
        "youngs_modulus": "? form: 54.8 GPa"
    }
}