var element_data = {
    "wiki": "https://en.wikipedia.org/wiki/Gadolinium",
    "video": "https://www.youtube.com/watch?v=uUo7pY38fGY&list=PL7A1F4CF36C085DE1&index=64",
    "image": "Gadolinium/gadolinium.jpg",
    "species": "LANTHANOIDS",
    "symbol": "Gd",
    "latin_name": "Gadolinium",
    "english_name": "Gadolinium",
    "year_discovered": "1886",
    "discovered_by": "Jean Charles Galissard de Marignac",
    "Electron_shell": [
        {
            "K": 2
        },
        {
            "L": 8
        },
        {
            "M": 18
        },
        {
            "N": 25
        },
        {
            "O": 9
        },
        {
            "P": 2
        },
        {
            "Q": 0
        },
        {
            "R": 0
        }
    ],
    "epn_no": [
        {
            "electrons": 64,
        },
        {
            "protons": 64,
        },
        {
            "neutrons": 93
        }
    ],
    "atomic_number": 64,
    "atomic_weight": "157.25 (g/mol)",
    "density": "7.89 (g/cm³)",
    "melting_point": "1311 °C = 2391.80 °F = 1584.15 K",
    "boiling_point": "3272 °C = 5921.60 °F = 3545.15 K",
    "valence_electrons": "3",
    "period": 6,
    "group": "----",
    "block": "f-block",
    "emission_spectrum": "Gadolinium/Gd.gif",
    "phase": "Solid",
    "phase_icon": "----",
    "fusion_heat": "10 (kJ &middot K)",
    "specific_heat": "240 J/(kg &middot; K)",
    "thermal_expansion": "9.4 &middot; 10<sup>-6</sup>°C<sup>-1</sup>)",
    "vaporization_heat": "305 kJ &middot; mol",
    "electron_configuration": "[Xe] 6s<sup>2</sup>4f<sup>7</sup>5d<sup>1</sup>",
    "oxidation_state": "+1, +2, +3",
    "ion_charge": "Gd<sup>3+</sup>",
    "ionization_potential": "6.65 eV",
    "atomic_radius": "179 (pm)",
    "covalent_radius": "---- (pm)",
    "van_der_waals_radius": "---- (pm)",
    "electrical_conductivity": "7.7 &middot; 10<sup>6</sup>",
    "electrical_type": "Conductor", 
    "magnetic_type": "Ferromagnetic",
    "volume_susceptibility": "----",
    "mass_susceptibility": "----",
    "molar_susceptibility": "---- m<sup>3</sup>/mol",
    "resistivity": "1.3 &middot; 10<sup>-7</sup> m\u03A9",
    "superconducting_point": "----",
    "lattice_structure": "Gadolinium/Hexagonal_close_packed.svg.png",
    "crystal_structure": "Hexagonal close-packed",
    "grid": "a=3.636 \u212B; c=5.783 \u212B",
    "attitude": "1.590",
    "debye_temperature": "----",
    "space_group_name": "----",
    "space_group_number": "194",
    "CAS_number": "CAS7440-54-2",
    "CID_number": "CID23982",
    "RTEC_number": "RTECSLW3850000",
    "brinell_hardness": "---- MPa",
    "mohs_hardness": "----",
    "vickers_hardness": "510-950 MPa",
    "bulk_modulus": "37.9 GPa",
    "Young_modulus": "54.8 GPa",
    "liquid_density": "7.4 (g/cm<sup>3</sup>)",
    "molar_volume": "19.9 (cm<sup>3</sup>/mol)",
    "poisson_ratio": "0.26 &micro;",
    "shear_modulus": "22 GPa",
    "sound_speed": "2680 m/s",
    "refractive_index": "----",
    "thermal_conductivity": "11 W/mK",
    "electronegative": "Pauling Scale 1.2",
    "electron_affinity": "50 KJ/mol",
    "radioactivity": "no",
    "half_life": "\u221E",
    "life_time": "\u221E",
    "barn": "49000 b",
    "hazard_block": [
        {
            "red": "-"
        },
        {
            "yellow": "-"
        },
        {
            "blue": "-"
        },
        {
            "white": "-"
        }
    ],
    "fire_hazard": "----",
    "health_hazard":"----",
    "reactivity": "----",
    "specific": "----",
    "universe_contains": "---- %",
    "sun_contains": "2 &middot; 10<sup>-7</sup> %",
    "oceans_contains": "7 &middot; 10<sup>-11</sup> %",
    "human_body_contains": "---- %",
    "earth_crust_contains": "0.00052 %",
    "meteorites_contains": "0.000023 %",
    "start_isotope_number": 134,
    "stop_isotope_number": 137,
    "half_life_number": ["400 ms", "1.1 s", "1 s", "2.2 s"],
    "iso_weight": [133.95537, 134.95257, 135.94734, 136.94502]
}