{
    "berkelium_Bk": {
        "allotropes": NaN,
        "alternative_name": NaN,
        "alternative_names": NaN,
        "appearance": "silvery",
        "at_t_(k)": NaN,
        "atomic_number": 97,
        "atomic_radius": "empirical: 170 pm",
        "atomic_weight": "(247)",
        "band_gap": NaN,
        "boiling_point": "beta: 2900 K (2627 \u00b0C, 4760 \u00b0F)",
        "brinell_hardness": NaN,
        "bulk_modulus": NaN,
        "cas_number": "7440-40-6",
        "color": NaN,
        "covalent_radius": NaN,
        "critical_point": NaN,
        "crystal_structure": "double hexagonal close-packed (dhcp)",
        "curie_point": NaN,
        "density_at_stp": NaN,
        "density_near_rt": "alpha: 14.78 g/cm3, beta: 13.25 g/cm3",
        "density_when_liquid_at_mp": NaN,
        "discovery": "Lawrence Berkeley National Laboratory (1949)",
        "discovery_and_first_isolation": NaN,
        "electrical_resistivity": NaN,
        "electron_configuration": "[Rn] 5f9 7s2",
        "electronegativity": "Pauling scale: 1.3",
        "element_category": "actinide",
        "first_isolation": NaN,
        "group_block": "group n/a, f-block",
        "heat_of_fusion": "7.92 kJ/mol (calculated)",
        "heat_of_vaporisation": NaN,
        "heat_of_vaporization": NaN,
        "ionisation_energies": NaN,
        "ionization_energies": "1st: 601 kJ/mol",
        "iso": "iso, NA, half-life, DM, DE (MeV), DP, 245Bk, syn, 4.94 d, ?, 0.810, 245Cm, ?, 6.455, 241Am, 246Bk, syn, 1.8 d, ?, 6.070, 242Am, ?, 1.350, 246Cm, 247Bk, syn, 1380 y, ?, 5.889, 243Am, 248Bk, syn, >300 y, ?, 5.803, 244Am, 249Bk, syn, 330 d, ?, 5.526, 245Am, SF, \u2013, \u2013, ??, 0.125, 249Cf",
        "magnetic_ordering": "paramagnetic",
        "melting_point": "beta: 1259 K (986 \u00b0C, 1807 \u00b0F)",
        "mohs_hardness": NaN,
        "molar_heat_capacity": NaN,
        "molar_volume": NaN,
        "name": "Berkelium",
        "named_by": NaN,
        "naming": "after Berkeley, California, where it was discovered",
        "oxidation_states": "2, 3, 4",
        "p_(pa)": NaN,
        "per_shell": "2, 8, 18, 32, 27, 8, 2",
        "period": 7,
        "phase": "solid",
        "poisson_ratio": NaN,
        "prediction": NaN,
        "pronunciation": "/b?r?ki?li.?m/; less commonly: /?b??rkli.?m/, b?r-KEE-lee-?m; BERK-lee-?m",
        "proposed_formal_name": NaN,
        "recognised_as_an_element_by": NaN,
        "recognized_as_a_distinct_element_by": NaN,
        "recognized_as_a_unique_metal_by": NaN,
        "recognized_as_an_element_by": NaN,
        "shear_modulus": NaN,
        "speed_of_sound": NaN,
        "speed_of_sound_thin_rod": NaN,
        "sublimation_point": NaN,
        "symbol": "Bk",
        "tensile_strength": NaN,
        "thermal_conductivity": "10 W/(m\u00b7K)",
        "thermal_diffusivity": NaN,
        "thermal_expansion": NaN,
        "triple_point": NaN,
        "van_der_waals_radius": NaN,
        "vickers_hardness": NaN,
        "when_liquid_at_bp": NaN,
        "when_liquid_at_mp": NaN,
        "youngs_modulus": NaN
    }
}