{
    "curium_Cm": {
        "allotropes": NaN,
        "alternative_name": NaN,
        "alternative_names": NaN,
        "appearance": "silvery metallic, glows purple in the dark",
        "at_t_(k)": 1788.0,
        "atomic_number": 96,
        "atomic_radius": "empirical: 174 pm",
        "atomic_weight": "(247)",
        "band_gap": NaN,
        "boiling_point": "3383 K (3110 \u00b0C, 5630 \u00b0F)",
        "brinell_hardness": NaN,
        "bulk_modulus": NaN,
        "cas_number": "7440-51-9",
        "color": NaN,
        "covalent_radius": "169\u00b13 pm",
        "critical_point": NaN,
        "crystal_structure": "double hexagonal close-packed (dhcp)",
        "curie_point": NaN,
        "density_at_stp": NaN,
        "density_near_rt": "13.51 g/cm3",
        "density_when_liquid_at_mp": NaN,
        "discovery": "Glenn T. Seaborg, Ralph A. James, Albert Ghiorso (1944)",
        "discovery_and_first_isolation": NaN,
        "electrical_resistivity": "1.25 \u00b5?\u00b7m",
        "electron_configuration": "[Rn] 5f7 6d1 7s2",
        "electronegativity": "Pauling scale: 1.3",
        "element_category": "actinide",
        "first_isolation": NaN,
        "group_block": "group n/a, f-block",
        "heat_of_fusion": "13.85 kJ/mol",
        "heat_of_vaporisation": NaN,
        "heat_of_vaporization": NaN,
        "ionisation_energies": NaN,
        "ionization_energies": "1st: 581 kJ/mol",
        "iso": "iso, NA, half-life, DM, DE (MeV), DP, 242Cm, syn, 160 d, SF, \u2013, \u2013, ?, 6.1, 238Pu, 243Cm, syn, 29.1 y, ?, 6.169, 239Pu, ?, 0.009, 243Am, SF, \u2013, \u2013, 244Cm, syn, 18.1 y, SF, \u2013, \u2013, ?, 5.8048, 240Pu, 245Cm, syn, 8500 y, SF, \u2013, \u2013, ?, 5.623, 241Pu, 246Cm, syn, 4730 y, ?, 5.475, 242Pu, SF, \u2013, \u2013, 247Cm, syn, 1.56\u00d7107 y, ?, 5.353, 243Pu, 248Cm, syn, 3.40\u00d7105 y, ?, 5.162, 244Pu, SF, \u2013, \u2013, 250Cm, syn, 9000 y, SF, \u2013, \u2013, ?, 5.169, 246Pu, ??, 0.037, 250Bk",
        "magnetic_ordering": "antiferromagnetic-paramagnetic transition at 52 K",
        "melting_point": "1613 K (1340 \u00b0C, 2444 \u00b0F)",
        "mohs_hardness": NaN,
        "molar_heat_capacity": NaN,
        "molar_volume": NaN,
        "name": "Curium",
        "named_by": NaN,
        "naming": "named after Marie Sk?odowska-Curie and Pierre Curie",
        "oxidation_states": "6, 4, 3, 2 (an amphoteric oxide)",
        "p_(pa)": "vapor pressure, P (Pa), 1, 10, 100, 1 k, 10 k, 100 k, at T (K), 1788, 1982",
        "per_shell": "2, 8, 18, 32, 25, 9, 2",
        "period": 7,
        "phase": "solid",
        "poisson_ratio": NaN,
        "prediction": NaN,
        "pronunciation": "/?kj??ri?m/, KEWR-ee-?m",
        "proposed_formal_name": NaN,
        "recognised_as_an_element_by": NaN,
        "recognized_as_a_distinct_element_by": NaN,
        "recognized_as_a_unique_metal_by": NaN,
        "recognized_as_an_element_by": NaN,
        "shear_modulus": NaN,
        "speed_of_sound": NaN,
        "speed_of_sound_thin_rod": NaN,
        "sublimation_point": NaN,
        "symbol": "Cm",
        "tensile_strength": NaN,
        "thermal_conductivity": NaN,
        "thermal_diffusivity": NaN,
        "thermal_expansion": NaN,
        "triple_point": NaN,
        "van_der_waals_radius": NaN,
        "vickers_hardness": NaN,
        "when_liquid_at_bp": NaN,
        "when_liquid_at_mp": NaN,
        "youngs_modulus": NaN
    }
}