{
    "copernicium_Cn": {
        "allotropes": NaN,
        "alternative_name": NaN,
        "alternative_names": NaN,
        "appearance": NaN,
        "at_t_(k)": NaN,
        "atomic_number": 112,
        "atomic_radius": "empirical: 147 pm (predicted)",
        "atomic_weight": "[285]",
        "band_gap": NaN,
        "boiling_point": "357+112\n?108 K (84+112\n?108 \u00b0C, 183+202\n?194 \u00b0F)",
        "brinell_hardness": NaN,
        "bulk_modulus": NaN,
        "cas_number": "54084-26-3",
        "color": NaN,
        "covalent_radius": "122 pm (predicted)",
        "critical_point": NaN,
        "crystal_structure": "hexagonal close-packed (hcp), (predicted)",
        "curie_point": NaN,
        "density_at_stp": NaN,
        "density_near_rt": "23.7 g/cm3 (predicted)",
        "density_when_liquid_at_mp": NaN,
        "discovery": "Gesellschaft f\u00fcr Schwerionenforschung (1996)",
        "discovery_and_first_isolation": NaN,
        "electrical_resistivity": NaN,
        "electron_configuration": "[Rn] 5f14 6d10 7s2 (predicted)",
        "electronegativity": NaN,
        "element_category": "transition metal, alternatively considered a post-transition metal",
        "first_isolation": NaN,
        "group_block": "group 12, d-block",
        "heat_of_fusion": NaN,
        "heat_of_vaporisation": NaN,
        "heat_of_vaporization": NaN,
        "ionisation_energies": NaN,
        "ionization_energies": "1st: 1154.9 kJ/mol, 2nd: 2170.0 kJ/mol, 3rd: 3164.7 kJ/mol, (more) (all estimated)",
        "iso": "iso\nNA\nhalf-life\nDM\nDE (MeV)\nDP\n\n\n285Cn\nsyn\n29 s\n?\n9.15, 9.03?\n281Ds\n\n\n283Cn\nsyn\n4 s\n90% ?\n9.53, 9.32, 8.94\n279Ds\n\n\n10% SF",
        "magnetic_ordering": NaN,
        "melting_point": NaN,
        "mohs_hardness": NaN,
        "molar_heat_capacity": NaN,
        "molar_volume": NaN,
        "name": "Ununbium",
        "named_by": NaN,
        "naming": "after Nicolaus Copernicus",
        "oxidation_states": "4, 2, 1, 0 (predicted)",
        "p_(pa)": NaN,
        "per_shell": "2, 8, 18, 32, 32, 18, 2 (predicted)",
        "period": 7,
        "phase": "gas (predicted)",
        "poisson_ratio": NaN,
        "prediction": NaN,
        "pronunciation": "/ko?p?r?n?si?m/, koe-p?r-NIS-ee-?m",
        "proposed_formal_name": NaN,
        "recognised_as_an_element_by": NaN,
        "recognized_as_a_distinct_element_by": NaN,
        "recognized_as_a_unique_metal_by": NaN,
        "recognized_as_an_element_by": NaN,
        "shear_modulus": NaN,
        "speed_of_sound": NaN,
        "speed_of_sound_thin_rod": NaN,
        "sublimation_point": NaN,
        "symbol": "Uub",
        "tensile_strength": NaN,
        "thermal_conductivity": NaN,
        "thermal_diffusivity": NaN,
        "thermal_expansion": NaN,
        "triple_point": NaN,
        "van_der_waals_radius": NaN,
        "vickers_hardness": NaN,
        "when_liquid_at_bp": NaN,
        "when_liquid_at_mp": NaN,
        "youngs_modulus": NaN
    }
}