{
    "darmstadtium_Ds": {
        "allotropes": NaN,
        "alternative_name": NaN,
        "alternative_names": NaN,
        "appearance": NaN,
        "at_t_(k)": NaN,
        "atomic_number": 110,
        "atomic_radius": "empirical: 132 pm (predicted)",
        "atomic_weight": "[281]",
        "band_gap": NaN,
        "boiling_point": NaN,
        "brinell_hardness": NaN,
        "bulk_modulus": NaN,
        "cas_number": "54083-77-1",
        "color": NaN,
        "covalent_radius": "128 pm (estimated)",
        "critical_point": NaN,
        "crystal_structure": "body-centered cubic (bcc), (predicted)",
        "curie_point": NaN,
        "density_at_stp": NaN,
        "density_near_rt": "34.8 g/cm3 (predicted)",
        "density_when_liquid_at_mp": NaN,
        "discovery": "Gesellschaft f\u00fcr Schwerionenforschung (1994)",
        "discovery_and_first_isolation": NaN,
        "electrical_resistivity": NaN,
        "electron_configuration": "[Rn] 5f14 6d8 7s2, (predicted)",
        "electronegativity": NaN,
        "element_category": "unknown, but probably a transition metal",
        "first_isolation": NaN,
        "group_block": "group 10, d-block",
        "heat_of_fusion": NaN,
        "heat_of_vaporisation": NaN,
        "heat_of_vaporization": NaN,
        "ionisation_energies": NaN,
        "ionization_energies": "1st: 955.2 kJ/mol, 2nd: 1891.1 kJ/mol, 3rd: 3029.6 kJ/mol, (more) (all estimated)",
        "iso": "iso, NA, half-life, DM, DE (MeV), DP, 281Ds, syn, 11 s, 94% SF, 6% ?, 8.67, 277Hs, 279Ds, syn, 0.20 s, 10% ?, 9.70, 275Hs, 90% SF",
        "magnetic_ordering": NaN,
        "melting_point": NaN,
        "mohs_hardness": NaN,
        "molar_heat_capacity": NaN,
        "molar_volume": NaN,
        "name": "Darmstadtium",
        "named_by": NaN,
        "naming": "after Darmstadt, Germany, where it was discovered",
        "oxidation_states": "8, 6, 4, 2, 0 (predicted)",
        "p_(pa)": NaN,
        "per_shell": "2, 8, 18, 32, 32, 16, 2 (predicted)",
        "period": 7,
        "phase": "solid (predicted)",
        "poisson_ratio": NaN,
        "prediction": NaN,
        "pronunciation": "i/d??rm??t??ti?m/, darm-SHTAHT-ee-?m",
        "proposed_formal_name": NaN,
        "recognised_as_an_element_by": NaN,
        "recognized_as_a_distinct_element_by": NaN,
        "recognized_as_a_unique_metal_by": NaN,
        "recognized_as_an_element_by": NaN,
        "shear_modulus": NaN,
        "speed_of_sound": NaN,
        "speed_of_sound_thin_rod": NaN,
        "sublimation_point": NaN,
        "symbol": "Ds",
        "tensile_strength": NaN,
        "thermal_conductivity": NaN,
        "thermal_diffusivity": NaN,
        "thermal_expansion": NaN,
        "triple_point": NaN,
        "van_der_waals_radius": NaN,
        "vickers_hardness": NaN,
        "when_liquid_at_bp": NaN,
        "when_liquid_at_mp": NaN,
        "youngs_modulus": NaN
    }
}