{
    "silver_Ag": {
        "allotropes": NaN,
        "alternative_name": NaN,
        "alternative_names": NaN,
        "appearance": "lustrous white metal",
        "at_t_(k)": 1283.0,
        "atomic_number": 47,
        "atomic_radius": "empirical: 144 pm",
        "atomic_weight": "107.8682(2)",
        "band_gap": NaN,
        "boiling_point": "2435 K (2162 \u00b0C, 3924 \u00b0F)",
        "brinell_hardness": "206\u2013250 MPa",
        "bulk_modulus": "100 GPa",
        "cas_number": "7440-22-4",
        "color": NaN,
        "covalent_radius": "145\u00b15 pm",
        "critical_point": NaN,
        "crystal_structure": "face-centered cubic (fcc)",
        "curie_point": NaN,
        "density_at_stp": NaN,
        "density_near_rt": "10.49 g/cm3",
        "density_when_liquid_at_mp": NaN,
        "discovery": "before 5000 BC",
        "discovery_and_first_isolation": NaN,
        "electrical_resistivity": "15.87 n?\u00b7m (at 20 \u00b0C)",
        "electron_configuration": "[Kr] 4d10 5s1",
        "electronegativity": "Pauling scale: 1.93",
        "element_category": "transition metal",
        "first_isolation": NaN,
        "group_block": "group 11, d-block",
        "heat_of_fusion": "11.28 kJ/mol",
        "heat_of_vaporisation": NaN,
        "heat_of_vaporization": "254 kJ/mol",
        "ionisation_energies": NaN,
        "ionization_energies": "1st: 731.0 kJ/mol, 2nd: 2070 kJ/mol, 3rd: 3361 kJ/mol",
        "iso": "iso\nNA\nhalf-life\nDM\nDE (MeV)\nDP\n\n\n105Ag\nsyn\n41.2 d\n?\n\u2013\n105Pd\n\n\n?\n0.344, 0.280,\n0.644, 0.443\n\u2013\n\n\n106mAg\nsyn\n8.28 d\n?\n\u2013\n106Pd\n\n\n?\n0.511, 0.717,\n1.045, 0.450\n\u2013\n\n\n107Ag\n51.839%\n107Ag is stable with 60 neutrons\n\n\n108mAg\nsyn\n418 y\n?\n\u2013\n108Pd\n\n\nIT\n0.109\n108Ag\n\n\n?\n0.433, 0.614,\n0.722\n\u2013\n\n\n109Ag\n48.161%\n109Ag is stable with 62 neutrons\n\n\n111Ag\nsyn\n7.45 d\n??\n1.036, 0.694\n111Cd\n\n\n?\n0.342\n\u2013",
        "magnetic_ordering": "diamagnetic",
        "melting_point": "1234.93 K (961.78 \u00b0C, 1763.2 \u00b0F)",
        "mohs_hardness": "2.5",
        "molar_heat_capacity": "25.350 J/(mol\u00b7K)",
        "molar_volume": NaN,
        "name": "Silver",
        "named_by": NaN,
        "naming": NaN,
        "oxidation_states": "?2, ?1, 1, 2, 3, 4 (an amphoteric oxide)",
        "p_(pa)": "vapor pressure, P (Pa), 1, 10, 100, 1 k, 10 k, 100 k, at T (K), 1283, 1413, 1575, 1782, 2055, 2433",
        "per_shell": "2, 8, 18, 18, 1",
        "period": 5,
        "phase": "solid",
        "poisson_ratio": "0.37",
        "prediction": NaN,
        "pronunciation": "/?s?lv?r/, SIL-v?r",
        "proposed_formal_name": NaN,
        "recognised_as_an_element_by": NaN,
        "recognized_as_a_distinct_element_by": NaN,
        "recognized_as_a_unique_metal_by": NaN,
        "recognized_as_an_element_by": NaN,
        "shear_modulus": "30 GPa",
        "speed_of_sound": NaN,
        "speed_of_sound_thin_rod": "2680 m/s (at r.t.)",
        "sublimation_point": NaN,
        "symbol": "Ag",
        "tensile_strength": NaN,
        "thermal_conductivity": "429 W/(m\u00b7K)",
        "thermal_diffusivity": "174 mm2/s (at 300 K)",
        "thermal_expansion": "18.9 \u00b5m/(m\u00b7K) (at 25 \u00b0C)",
        "triple_point": NaN,
        "van_der_waals_radius": "172 pm",
        "vickers_hardness": "251 MPa",
        "when_liquid_at_bp": NaN,
        "when_liquid_at_mp": "9.320 g/cm3",
        "youngs_modulus": "83 GPa"
    }
}