var element_data = {
    "wiki": "https://en.wikipedia.org/wiki/Silver",
    "video": "https://www.youtube.com/watch?v=pPd5qAb4J50&list=PL7A1F4CF36C085DE1&index=47",
    "image": "Silver/silver.jpg",
    "species": "TRANSITION METALS",
    "symbol": "Si",
    "latin_name": "Argentum",
    "english_name": "Silver",
    "year_discovered": "----",
    "discovered_by": "----",
    "Electron_shell": [
        {
            "K": 2
        },
        {
            "L": 8
        },
        {
            "M": 18
        },
        {
            "N": 18
        },
        {
            "O": 1
        },
        {
            "P": 0
        },
        {
            "Q": 0
        },
        {
            "R": 0
        }
    ],
    "epn_no": [
        {
            "electrons": 47,
        },
        {
            "protons": 47,
        },
        {
            "neutrons": 61
        }
    ],
    "atomic_number": 47,
    "atomic_weight": "107.868 (g/mol)",
    "density": "10.49 (g/cm³)",
    "melting_point": "961.8 °C = 1763.24 °F = 1234.95 K",
    "boiling_point": "2162 °C = 3923.60 °F = 2435.15 K",
    "valence_electrons": 1,
    "period": 5,
    "group": "I B",
    "block": "d-block",
    "emission_spectrum": "Silver/Si.gif",
    "phase": "Solid",
    "phase_icon": "----",
    "fusion_heat": "11.3 (kJ &middot K)",
    "specific_heat": "235 J/(kg &middot; K)",
    "thermal_expansion": "18.9 &middot; 10<sup>-6</sup>°C<sup>-1</sup>)",
    "vaporization_heat": "255 kJ &middot; mol",
    "electron_configuration": "[Kr] 4d<sup>10</sup> 5s<sup>1</sup>",
    "oxidation_state": "-2, -1, +1, +2, +3",
    "ion_charge": "Ag<sup>+</sup>",
    "ionization_potential": "7.54 eV",
    "atomic_radius": "144 (pm)",
    "covalent_radius": "153 (pm)",
    "van_der_waals_radius": "172 (pm)",
    "electrical_conductivity": "6.2 &middot; 10<sup>7</sup>",
    "electrical_type": "Conductor", 
    "magnetic_type": "Diamagnetic",
    "volume_susceptibility": "-0.0000241",
    "mass_susceptibility": "-0.000000023",
    "molar_susceptibility": "-2.45 &middot; 10<sup>-10</sup> m<sup>3</sup>/mol",
    "resistivity": "1.59 &middot; 10<sup>-8</sup> m\u03A9",
    "superconducting_point": "----",
    "lattice_structure": "Barium/Cubic-face-centered.svg.png",
    "crystal_structure": "Face-centered cubic",
    "grid": "a=4.086 \u212B",
    "attitude": "----",
    "debye_temperature": "-48.15 °C = -54.67 °F = 225 K",
    "space_group_name": "Fm_3m",
    "space_group_number": "225",
    "CAS_number": "CAS7440-22-4",
    "CID_number": "CID23954",
    "RTEC_number": "RTECSVW3500000",
    "brinell_hardness": "206-250 MPa",
    "mohs_hardness": "2.5",
    "vickers_hardness": "251 MPa",
    "bulk_modulus": "100 GPa",
    "Young_modulus": "83 GPa",
    "liquid_density": "9.32 (g/cm<sup>3</sup>)",
    "molar_volume": "10.3 (cm<sup>3</sup>/mol)",
    "poisson_ratio": "0.37 &micro;",
    "shear_modulus": "30 GPa",
    "sound_speed": "2600 m/s",
    "refractive_index": "----",
    "thermal_conductivity": "430 W/mK",
    "electronegative": "Pauling Scale 1.93",
    "electron_affinity": "125.6 KJ/mol",
    "radioactivity": "no",
    "half_life": "\u221E",
    "life_time": "\u221E",
    "barn": "63.3 b",
    "hazard_block": [
        {
            "red": "0"
        },
        {
            "yellow": "0"
        },
        {
            "blue": "1"
        },
        {
            "white": "-"
        }
    ],
    "fire_hazard": "Will not burn",
    "health_hazard":"Slightly hazardous",
    "reactivity": "Stable",
    "specific": "----",
    "universe_contains": "6 &middot; 10<sup>-8</sup> %",
    "sun_contains": "1 &middot; 10<sup>-7</sup> %",
    "oceans_contains": "1 &middot; 10<sup>-8</sup> %",
    "human_body_contains": "---- %",
    "earth_crust_contains": "7.9 &middot; 10<sup>-6</sup> %",
    "meteorites_contains": "0.000014 %",
    "start_isotope_number": 93,
    "stop_isotope_number": 107,
    "half_life_number": ["5 ms", "37 ms", "1.74 s", "4.45", "25.3 s", "47.5", "124 s", "2.01 m", "11.1 m", "12.9 m", "65.7 m", "69.2 m", "41.29 days", "23.96 m", "Stable"],
    "iso_weight": [92.94978, 93.92478, 94.93548, 95.93068, 96.92397, 97.92157, 98.91760, 99.91610, 100.91610, 101.91169, 102.908973, 103.908629, 104.906529, 105.906669, 106.905097]
}