{
    "tungsten_W": {
        "allotropes": NaN,
        "alternative_name": "wolfram",
        "alternative_names": NaN,
        "appearance": "grayish white, lustrous",
        "at_t_(k)": 3477.0,
        "atomic_number": 74,
        "atomic_radius": "empirical: 139 pm",
        "atomic_weight": "183.84(1)",
        "band_gap": NaN,
        "boiling_point": "6203 K (5930 \u00b0C, 10,706 \u00b0F)",
        "brinell_hardness": "2000\u20134000 MPa",
        "bulk_modulus": "310 GPa",
        "cas_number": "7440-33-7",
        "color": NaN,
        "covalent_radius": "162\u00b17 pm",
        "critical_point": NaN,
        "crystal_structure": "body-centered cubic (bcc)",
        "curie_point": NaN,
        "density_at_stp": NaN,
        "density_near_rt": "19.25 g/cm3",
        "density_when_liquid_at_mp": NaN,
        "discovery": "Carl Wilhelm Scheele (1781)",
        "discovery_and_first_isolation": NaN,
        "electrical_resistivity": "52.8 n?\u00b7m (at 20 \u00b0C)",
        "electron_configuration": "[Xe] 4f14 5d4 6s2",
        "electronegativity": "Pauling scale: 2.36",
        "element_category": "transition metal",
        "first_isolation": "Juan Jos\u00e9 Elhuyar and Fausto Elhuyar (1783)",
        "group_block": "group 6, d-block",
        "heat_of_fusion": "35.3 kJ/mol",
        "heat_of_vaporisation": NaN,
        "heat_of_vaporization": "774 kJ/mol",
        "ionisation_energies": NaN,
        "ionization_energies": "1st: 770 kJ/mol, 2nd: 1700 kJ/mol",
        "iso": "iso, NA, half-life, DM, DE (MeV), DP, 180W, 0.12%, 1.8\u00d71018 y, ?, 2.516, 176Hf, 181W, syn, 121.2 d, ?, 0.188, 181Ta, 182W, 26.50%, 182W is stable with 108 neutrons, 183W, 14.31%, 183W is stable with 110 neutrons, 184W, 30.64%, 184W is stable with 111 neutrons, 185W, syn, 75.1 d, ??, 0.433, 185Re, 186W, 28.43%, 186W is stable with 112 neutrons",
        "magnetic_ordering": "paramagnetic",
        "melting_point": "3695 K (3422 \u00b0C, 6192 \u00b0F)",
        "mohs_hardness": "7.5",
        "molar_heat_capacity": "24.27 J/(mol\u00b7K)",
        "molar_volume": NaN,
        "name": "Tungsten",
        "named_by": "Torbern Bergman (1781)",
        "naming": NaN,
        "oxidation_states": "6, 5, 4, 3, 2, 1, 0, ?1, ?2, ?4 (a mildly acidic oxide)",
        "p_(pa)": "vapor pressure, P (Pa), 1, 10, 100, 1 k, 10 k, 100 k, at T (K), 3477, 3773, 4137, 4579, 5127, 5823",
        "per_shell": "2, 8, 18, 32, 12, 2",
        "period": 6,
        "phase": "solid",
        "poisson_ratio": "0.28",
        "prediction": NaN,
        "pronunciation": "/?t??st?n/; /?w?lfr?m/, TUNG-st?n; WUUL-fr?m",
        "proposed_formal_name": NaN,
        "recognised_as_an_element_by": NaN,
        "recognized_as_a_distinct_element_by": NaN,
        "recognized_as_a_unique_metal_by": NaN,
        "recognized_as_an_element_by": NaN,
        "shear_modulus": "161 GPa",
        "speed_of_sound": NaN,
        "speed_of_sound_thin_rod": "4620 m/s (at r.t.) (annealed)",
        "sublimation_point": NaN,
        "symbol": "W",
        "tensile_strength": NaN,
        "thermal_conductivity": "173 W/(m\u00b7K)",
        "thermal_diffusivity": NaN,
        "thermal_expansion": "4.5 \u00b5m/(m\u00b7K) (at 25 \u00b0C)",
        "triple_point": NaN,
        "van_der_waals_radius": NaN,
        "vickers_hardness": "3430\u20134600 MPa",
        "when_liquid_at_bp": NaN,
        "when_liquid_at_mp": "17.6 g/cm3",
        "youngs_modulus": "411 GPa"
    }
}